
                                 *****************
                                 * O   R   C   A *
                                 *****************

                                            #,                                       
                                            ###                                      
                                            ####                                     
                                            #####                                    
                                            ######                                   
                                           ########,                                 
                                     ,,################,,,,,                         
                               ,,#################################,,                 
                          ,,##########################################,,             
                       ,#########################################, ''#####,          
                    ,#############################################,,   '####,        
                  ,##################################################,,,,####,       
                ,###########''''           ''''###############################       
              ,#####''   ,,,,##########,,,,          '''####'''          '####       
            ,##' ,,,,###########################,,,                        '##       
           ' ,,###''''                  '''############,,,                           
         ,,##''                                '''############,,,,        ,,,,,,###''
      ,#''                                            '''#######################'''  
     '                                                          ''''####''''         
             ,#######,   #######,   ,#######,      ##                                
            ,#'     '#,  ##    ##  ,#'     '#,    #''#        ######   ,####,        
            ##       ##  ##   ,#'  ##            #'  '#       #        #'  '#        
            ##       ##  #######   ##           ,######,      #####,   #    #        
            '#,     ,#'  ##    ##  '#,     ,#' ,#      #,         ##   #,  ,#        
             '#######'   ##     ##  '#######'  #'      '#     #####' # '####'        



                  #######################################################
                  #                        -***-                        #
                  #          Department of theory and spectroscopy      #
                  #    Directorship and core code : Frank Neese         #
                  #        Max Planck Institute fuer Kohlenforschung    #
                  #                Kaiser Wilhelm Platz 1               #
                  #                 D-45470 Muelheim/Ruhr               #
                  #                      Germany                        #
                  #                                                     #
                  #                  All rights reserved                #
                  #                        -***-                        #
                  #######################################################


                         Program Version 5.0.4 -  RELEASE  -


 With contributions from (in alphabetic order):
   Daniel Aravena         : Magnetic Suceptibility
   Michael Atanasov       : Ab Initio Ligand Field Theory (pilot matlab implementation)
   Alexander A. Auer      : GIAO ZORA, VPT2 properties, NMR spectrum
   Ute Becker             : Parallelization
   Giovanni Bistoni       : ED, misc. LED, open-shell LED, HFLD
   Martin Brehm           : Molecular dynamics
   Dmytro Bykov           : SCF Hessian
   Vijay G. Chilkuri      : MRCI spin determinant printing, contributions to CSF-ICE
   Dipayan Datta          : RHF DLPNO-CCSD density
   Achintya Kumar Dutta   : EOM-CC, STEOM-CC
   Dmitry Ganyushin       : Spin-Orbit,Spin-Spin,Magnetic field MRCI
   Miquel Garcia          : C-PCM and meta-GGA Hessian, CC/C-PCM, Gaussian charge scheme
   Yang Guo               : DLPNO-NEVPT2, F12-NEVPT2, CIM, IAO-localization
   Andreas Hansen         : Spin unrestricted coupled pair/coupled cluster methods
   Benjamin Helmich-Paris : MC-RPA, TRAH-SCF, COSX integrals
   Lee Huntington         : MR-EOM, pCC
   Robert Izsak           : Overlap fitted RIJCOSX, COSX-SCS-MP3, EOM
   Marcus Kettner         : VPT2
   Christian Kollmar      : KDIIS, OOCD, Brueckner-CCSD(T), CCSD density, CASPT2, CASPT2-K
   Simone Kossmann        : Meta GGA functionals, TD-DFT gradient, OOMP2, MP2 Hessian
   Martin Krupicka        : Initial AUTO-CI
   Lucas Lang             : DCDCAS
   Marvin Lechner         : AUTO-CI (C++ implementation), FIC-MRCC
   Dagmar Lenk            : GEPOL surface, SMD
   Dimitrios Liakos       : Extrapolation schemes; Compound Job, initial MDCI parallelization
   Dimitrios Manganas     : Further ROCIS development; embedding schemes
   Dimitrios Pantazis     : SARC Basis sets
   Anastasios Papadopoulos: AUTO-CI, single reference methods and gradients
   Taras Petrenko         : DFT Hessian,TD-DFT gradient, ASA, ECA, R-Raman, ABS, FL, XAS/XES, NRVS
   Peter Pinski           : DLPNO-MP2, DLPNO-MP2 Gradient
   Christoph Reimann      : Effective Core Potentials
   Marius Retegan         : Local ZFS, SOC
   Christoph Riplinger    : Optimizer, TS searches, QM/MM, DLPNO-CCSD(T), (RO)-DLPNO pert. Triples
   Tobias Risthaus        : Range-separated hybrids, TD-DFT gradient, RPA, STAB
   Michael Roemelt        : Original ROCIS implementation
   Masaaki Saitow         : Open-shell DLPNO-CCSD energy and density
   Barbara Sandhoefer     : DKH picture change effects
   Avijit Sen             : IP-ROCIS
   Kantharuban Sivalingam : CASSCF convergence, NEVPT2, FIC-MRCI
   Bernardo de Souza      : ESD, SOC TD-DFT
   Georgi Stoychev        : AutoAux, RI-MP2 NMR, DLPNO-MP2 response
   Willem Van den Heuvel  : Paramagnetic NMR
   Boris Wezisla          : Elementary symmetry handling
   Frank Wennmohs         : Technical directorship


 We gratefully acknowledge several colleagues who have allowed us to
 interface, adapt or use parts of their codes:
   Stefan Grimme, W. Hujo, H. Kruse, P. Pracht,  : VdW corrections, initial TS optimization,
                  C. Bannwarth, S. Ehlert          DFT functionals, gCP, sTDA/sTD-DF
   Ed Valeev, F. Pavosevic, A. Kumar             : LibInt (2-el integral package), F12 methods
   Garnet Chan, S. Sharma, J. Yang, R. Olivares  : DMRG
   Ulf Ekstrom                                   : XCFun DFT Library
   Mihaly Kallay                                 : mrcc  (arbitrary order and MRCC methods)
   Jiri Pittner, Ondrej Demel                    : Mk-CCSD
   Frank Weinhold                                : gennbo (NPA and NBO analysis)
   Christopher J. Cramer and Donald G. Truhlar   : smd solvation model
   Lars Goerigk                                  : TD-DFT with DH, B97 family of functionals
   V. Asgeirsson, H. Jonsson                     : NEB implementation
   FAccTs GmbH                                   : IRC, NEB, NEB-TS, DLPNO-Multilevel, CI-OPT
                                                   MM, QMMM, 2- and 3-layer-ONIOM, Crystal-QMMM,
                                                   LR-CPCM, SF, NACMEs, symmetry and pop. for TD-DFT,
                                                   nearIR, NL-DFT gradient (VV10), updates on ESD,
                                                   ML-optimized integration grids
   S Lehtola, MJT Oliveira, MAL Marques          : LibXC Library
   Liviu Ungur et al                             : ANISO software


 Your calculation uses the libint2 library for the computation of 2-el integrals
 For citations please refer to: http://libint.valeyev.net

 Your ORCA version has been built with support for libXC version: 5.1.0
 For citations please refer to: https://tddft.org/programs/libxc/

 This ORCA versions uses:
   CBLAS   interface :  Fast vector & matrix operations
   LAPACKE interface :  Fast linear algebra routines
   SCALAPACK package :  Parallel linear algebra routines
   Shared memory     :  Shared parallel matrices
   BLAS/LAPACK       :  OpenBLAS 0.3.15  USE64BITINT DYNAMIC_ARCH NO_AFFINITY SkylakeX SINGLE_THREADED
        Core in use  :  SkylakeX
   Copyright (c) 2011-2014, The OpenBLAS Project




***************************************
The coordinates will be read from file: reactants.xyz
***************************************


Your calculation utilizes the SMD solvation module
Please cite in your paper:
A.V. Marenich, C.J. Cramer, D.G. Truhlar J. Phys. Chem. B, 113, (2009), 6378 

XCFun DFT library Copyright 2009-2010 Ulf Ekstrom and contributors.
See http://admol.org/xcfun for more information.
This is free software; see the source code for copying conditions.
There is ABSOLUTELY NO WARRANTY; not even for MERCHANTABILITY or FITNESS FOR A PARTICULAR PURPOSE.
For details see the documentation.
Scientific users of this library should cite U. Ekstrom, L. Visscher, R. Bast, A. J. Thorvaldsen and K. Ruud;
J.Chem.Theor.Comp. 2010, DOI: 10.1021/ct100117s
XCFun Version 0.99 

================================================================================

----- Orbital basis set information -----
Your calculation utilizes the basis: 6-311++G**
   H, Li - Ne  : R. Krishnan, J. S. Binkley, R. Seeger and J. A. Pople, J. Chem. Phys. 72, 650 (1980).
   Na - Ar     : A. D. McLean and G. S. Chandler J. Chem. Phys. 72, 5639, (1980).
   K  - Ca     : J.-P. Blaudeau, M. P. McGrath, L. A. Curtiss and L. Radom, J. Chem. Phys. 107, 5016 (1997).
   Ga - Kr     : L. A. Curtiss, M. P. McGrath, J.-P. Blandeau, N. E. Davis, R. C. Binning and L. Radom, J. Chem. Phys. 103, 6104 (1995).
   Pol./Diff.
   H, Li - Cl  : T. Clark, J. Chandrasekhar and P. v. R. Schleyer, J. Comp. Chem. 4, 294 (1983).
   H - Ne      : M. J. Frisch, J. A. Pople and J. S. Binkley, J. Chem. Phys. 80, 3265 (1984).

----- AuxJ basis set information -----
Your calculation utilizes the auxiliary basis: def2/J
   F. Weigend, Phys. Chem. Chem. Phys. 8, 1057 (2006).

================================================================================
                                        WARNINGS
                       Please study these warnings very carefully!
================================================================================


WARNING: Geometry Optimization
  ===> : Switching off AutoStart
         For restart on a previous wavefunction, please use MOREAD

INFO   : the flag for use of the SHARK integral package has been found!

================================================================================
                                       INPUT FILE
================================================================================
NAME = structure_opt.inp
|  1> !wb97x 6-311++G** OPT CPCM(WATER)
|  2> %maxcore  3500
|  3> %pal
|  4> nprocs 24
|  5> end
|  6> %cpcm
|  7> smd true
|  8> SMDsolvent "water"
|  9> end
| 10> %geom
| 11> ConstrainFragments {1} end
| 12> ConstrainFragments {4} end
| 13> ConnectFragments
| 14> { 1 2 C 5 7 }
| 15> { 1 2 C 0 9 }
| 16> { 2 3 C 13 5 }
| 17> { 3 4 C 13 17 }
| 18> end
| 19> end
| 20> * XYZfile -1 1 reactants.xyz
| 21> %geom
| 22> Fragments
| 23> 1 {0:5} end
| 24> 2 {6:12} end
| 25> 3 {13:16} end
| 26> 4 {17} end
| 27> end
| 28> end
| 29> 
| 30>                          ****END OF INPUT****
================================================================================

                       *****************************
                       * Geometry Optimization Run *
                       *****************************

Geometry optimization settings:
Update method            Update   .... BFGS
Choice of coordinates    CoordSys .... Z-matrix Internals
Initial Hessian          InHess   .... Almoef's Model

Convergence Tolerances:
Energy Change            TolE     ....  5.0000e-06 Eh
Max. Gradient            TolMAXG  ....  3.0000e-04 Eh/bohr
RMS Gradient             TolRMSG  ....  1.0000e-04 Eh/bohr
Max. Displacement        TolMAXD  ....  4.0000e-03 bohr
RMS Displacement         TolRMSD  ....  2.0000e-03 bohr
Strict Convergence                ....  False
------------------------------------------------------------------------------
                        ORCA OPTIMIZATION COORDINATE SETUP
------------------------------------------------------------------------------

The optimization will be done in new redundant internal coordinates
Making redundant internal coordinates   ...  (new redundants) done
Evaluating the initial hessian          ...  (Almloef) done
Evaluating the coordinates              ...  done
Calculating the B-matrix                .... done
Calculating the G-matrix                .... done
Diagonalizing the G-matrix              .... done
Imposing constraints:
 Iter   0:  RMS(Cart)=    0.0000000000 RMS(Int)=    0.0000000000
CONVERGED
Small eigenvalue found = 1.270e-02
Small eigenvalue found = 2.277e-02
The first mode is                       ....   70
The number of degrees of freedom        ....   48
Storing new coordinates                 .... done

    -----------------------------------------------------------------
                    Redundant Internal Coordinates


    -----------------------------------------------------------------
         Definition                    Initial Value    Approx d2E/dq
    -----------------------------------------------------------------
      1. B(N   1,C   0)                  1.3611         0.622347   
      2. B(C   2,N   1)                  1.3582         0.628875   
      3. B(C   3,C   2)                  1.3949         0.613658   
      4. B(C   4,C   3)                  1.3934         0.616971   
      5. B(C   5,C   0)                  1.4122         0.575774   
      6. B(C   5,C   4)                  1.4061         0.588917   
      7. B(O   7,C   5)                  2.3435         0.016853 C 
      8. B(O   7,N   6)                  1.2480         0.844503   
      9. B(O   8,N   6)                  1.3769         0.525866   
     10. B(F   9,C   0)                  1.3500         0.602260 C 
     11. B(F   9,N   6)                  2.8678         0.002044   
     12. B(F   9,O   7)                  2.5821         0.005837   
     13. B(H  11,H  10)                  2.4818         0.000415   
     14. B(H  12,O   8)                  2.5152         0.001717   
     15. B(H  12,H  11)                  2.4663         0.000439   
     16. B(H  12,N   6)                  2.7029         0.000861   
     17. B(C  13,H  12)                  6.4705         0.000000 C 
     18. B(H  14,C  13)                  1.0933         0.355708   
     19. B(H  15,C  13)                  1.0935         0.355447   
     20. B(H  16,C  13)                  1.0942         0.354575   
     21. B(S  17,C  13)                  1.8030         0.369495 C 
     22. A(N   1,C   0,C   5)          120.1571         0.425830   
     23. A(C   5,C   0,F   9)          121.1725         0.421471 C 
     24. A(N   1,C   0,F   9)          118.6704         0.424592 C 
     25. A(C   0,N   1,C   2)          121.9524         0.429796   
     26. A(N   1,C   2,C   3)          120.0262         0.431531   
     27. A(C   2,C   3,C   4)          119.3498         0.432882   
     28. A(C   3,C   4,C   5)          120.4718         0.429694   
     29. A(C   4,C   5,O   7)          147.4261         0.238582 C 
     30. A(C   0,C   5,O   7)           94.5313         0.237820 C 
     31. A(C   0,C   5,C   4)          118.0425         0.424407   
     32. A(O   8,N   6,H  12)           67.2752         0.152046   
     33. A(O   7,N   6,O   8)          118.5014         0.433822   
     34. A(O   7,N   6,F   9)           64.2090         0.186619   
     35. A(O   7,N   6,H  12)          174.2234         0.159181   
     36. A(F   9,N   6,H  12)          110.0144         0.106848   
     37. A(N   6,O   7,F   9)           89.9947         0.212791   
     38. A(C   5,O   7,N   6)           31.7456         0.248611 C 
     39. A(C   5,O   7,F   9)           58.2491         0.140475 C 
     40. A(N   6,O   8,H  12)           82.3972         0.162696   
     41. A(C   0,F   9,O   7)           86.0471         0.203997 C 
     42. A(N   6,F   9,O   7)           25.7962         0.120482   
     43. A(C   0,F   9,N   6)           60.2509         0.179684 C 
     44. A(H  10,H  11,H  12)          119.7063         0.095112   
     45. A(H  11,H  12,C  13)           97.4119         0.089403 C 
     46. A(N   6,H  12,O   8)           30.3275         0.103999   
     47. A(N   6,H  12,H  11)          126.7169         0.097913   
     48. A(O   8,H  12,H  11)          157.0445         0.099419   
     49. A(N   6,H  12,C  13)           93.5367         0.089580 C 
     50. A(O   8,H  12,C  13)           87.0719         0.089678 C 
     51. A(H  14,C  13,H  16)          108.9465         0.289576   
     52. A(H  15,C  13,H  16)          108.9926         0.289543   
     53. A(H  12,C  13,S  17)           33.9981         0.091865   
     54. A(H  16,C  13,S  17)          109.9020         0.339336 C 
     55. A(H  12,C  13,H  15)          142.7754         0.091295 C 
     56. A(H  12,C  13,H  16)           85.8470         0.091294 C 
     57. A(H  14,C  13,S  17)          109.9803         0.339517 C 
     58. A(H  15,C  13,S  17)          109.9612         0.339475 C 
     59. A(H  12,C  13,H  14)           97.1223         0.091295 C 
     60. A(H  14,C  13,H  15)          109.0321         0.289688   
     61. D(C   2,N   1,C   0,C   5)     -0.1041         0.028432   
     62. D(C   2,N   1,C   0,F   9)    179.9112         0.028432 C 
     63. D(C   3,C   2,N   1,C   0)      0.1066         0.025783   
     64. D(C   4,C   3,C   2,N   1)     -0.0956         0.020965   
     65. D(C   5,C   4,C   3,C   2)      0.0854         0.021202   
     66. D(C   4,C   5,C   0,N   1)      0.0896         0.022761   
     67. D(C   4,C   5,C   0,F   9)   -179.9260         0.022761 C 
     68. D(C   0,C   5,C   4,C   3)     -0.0818         0.021656   
     69. D(O   7,C   5,C   4,C   3)   -179.9036         0.021656 C 
     70. D(O   7,C   5,C   0,N   1)    179.9933         0.022761 C 
     71. D(O   7,C   5,C   0,F   9)     -0.0223         0.022761 C 
     72. D(N   6,O   7,C   5,C   0)   -179.9521         0.001517 C 
     73. D(N   6,O   7,C   5,C   4)     -0.1099         0.001517 C 
     74. D(F   9,O   7,C   5,C   0)      0.0117         0.001517 C 
     75. D(F   9,O   7,C   5,C   4)    179.8539         0.001517 C 
     76. D(F   9,O   7,N   6,H  12)      0.1568         0.079747   
     77. D(F   9,O   7,N   6,O   8)    179.9932         0.079747   
     78. D(C   5,O   7,N   6,H  12)      0.1876         0.079747 C 
     79. D(C   5,O   7,N   6,O   8)   -179.9761         0.079747 C 
     80. D(C   5,O   7,N   6,F   9)      0.0308         0.079747 C 
     81. D(H  12,O   8,N   6,O   7)   -179.9821         0.025649   
     82. D(C   0,F   9,O   7,C   5)     -0.0123         0.001503 C 
     83. D(O   7,F   9,C   0,N   1)   -179.9952         0.032536 C 
     84. D(N   6,F   9,O   7,C   5)     -0.0190         0.001503 C 
     85. D(O   7,F   9,C   0,C   5)      0.0202         0.032536 C 
     86. D(O   7,F   9,N   6,H  12)   -179.9832         0.001500   
     87. D(N   6,F   9,C   0,C   5)      0.0236         0.032536 C 
     88. D(C   0,F   9,N   6,O   7)   -179.9922         0.001500 C 
     89. D(C   0,F   9,N   6,H  12)      0.0246         0.001500 C 
     90. D(N   6,F   9,C   0,N   1)   -179.9918         0.032536 C 
     91. D(C   0,F   9,O   7,N   6)      0.0068         0.001503 C 
     92. D(O   7,F   9,O   8,H  12)   -179.9897         0.001500   
     93. D(C   0,F   9,O   8,H  12)      0.0232         0.001500 C 
     94. D(O   8,H  12,N   6,O   7)    179.8441         0.001501   
     95. D(O   8,H  12,N   6,F   9)    179.9943         0.001501   
     96. D(H  11,H  12,N   6,O   7)     -0.1748         0.001501   
     97. D(C  13,H  12,O   8,N   6)    102.1086         0.001502 C 
     98. D(H  11,H  12,N   6,F   9)     -0.0245         0.001501   
     99. D(C  13,H  12,N   6,O   7)    101.7914         0.001501 C 
    100. D(C  13,H  12,N   6,O   8)    -78.0527         0.001501 C 
    101. D(C  13,H  12,N   6,F   9)    101.9416         0.001501 C 
    102. D(H  11,H  12,N   6,O   8)    179.9811         0.001501   
    103. D(H  11,H  12,O   8,N   6)     -0.0388         0.001502   
    104. D(N   6,H  12,H  11,H  10)      0.0466         0.001502   
    105. D(O   8,H  12,H  11,H  10)      0.0710         0.001502   
    106. D(C  13,H  12,H  11,H  10)   -100.0105         0.001502 C 
    107. D(H  14,C  13,H  12,N   6)     82.0251         0.001500 C 
    108. D(H  14,C  13,H  12,O   8)     52.3784         0.001500 C 
    109. D(H  14,C  13,H  12,H  11)   -150.2341         0.001500 C 
    110. D(H  16,C  13,H  12,H  11)    -41.6317         0.001500 C 
    111. D(H  15,C  13,H  12,O   8)    -82.6714         0.001500 C 
    112. D(H  15,C  13,H  12,H  11)     74.7161         0.001500 C 
    113. D(H  16,C  13,H  12,N   6)   -169.3725         0.001500 C 
    114. D(H  15,C  13,H  12,N   6)    -53.0247         0.001500 C 
    115. D(H  16,C  13,H  12,O   8)    160.9808         0.001500 C 
    116. D(S  17,C  13,H  12,N   6)    -33.4789         0.001500   
    117. D(S  17,C  13,H  12,O   8)    -63.1256         0.001500   
    118. D(S  17,C  13,H  12,H  11)     94.2619         0.001500   
    -----------------------------------------------------------------

Number of atoms                         .... 18
Number of degrees of freedom            .... 118

         *************************************************************
         *                GEOMETRY OPTIMIZATION CYCLE   1            *
         *************************************************************
---------------------------------
CARTESIAN COORDINATES (ANGSTROEM)
---------------------------------
  C      0.000000    0.000000    1.820000
  N      1.178000   -0.196000    2.473000
  C      1.255000   -0.207000    3.829000
  C      0.105000   -0.016000    4.595000
  C     -1.116000    0.187000    3.955000
  C     -1.192000    0.198000    2.551000
  N     -2.456000    0.409000    1.893000
  O     -2.541000    0.423000    0.648000
  O     -3.602000    0.600000    2.632000
  F      0.000000    0.000000    0.470000
  H      2.209000   -0.366000    4.313000
  H      0.163000   -0.026000    5.676000
  H     -2.005000    0.335000    4.557000
  C     -2.201000    6.773000    5.174000
  H     -3.289000    6.872000    5.217000
  H     -1.774000    7.699000    4.779000
  H     -1.819000    6.608000    6.186000
  S     -1.750000    5.386000    4.114000

----------------------------
CARTESIAN COORDINATES (A.U.)
----------------------------
  NO LB      ZA    FRAG     MASS         X           Y           Z
   0 C     6.0000    1    12.011    0.000000    0.000000    3.439302
   1 N     7.0000    1    14.007    2.226097   -0.370386    4.673293
   2 C     6.0000    1    12.011    2.371606   -0.391173    7.235761
   3 C     6.0000    1    12.011    0.198421   -0.030236    8.683292
   4 C     6.0000    1    12.011   -2.108934    0.353379    7.473867
   5 C     6.0000    1    12.011   -2.252554    0.374166    4.820691
   6 N     7.0000    2    14.007   -4.641167    0.772898    3.577252
   7 O     8.0000    2    15.999   -4.801794    0.799354    1.224543
   8 O     8.0000    2    15.999   -6.806794    1.133836    4.973759
   9 F     9.0000    2    18.998    0.000000    0.000000    0.888171
  10 H     1.0000    2     1.008    4.174405   -0.691640    8.150389
  11 H     1.0000    2     1.008    0.308025   -0.049133   10.726086
  12 H     1.0000    2     1.008   -3.788901    0.633058    8.611482
  13 C     6.0000    3    12.011   -4.159287   12.799115    9.777443
  14 H     1.0000    3     1.008   -6.215309   12.986198    9.858701
  15 H     1.0000    3     1.008   -3.352374   14.549002    9.031001
  16 H     1.0000    3     1.008   -3.437412   12.487310   11.689846
  17 S    16.0000    4    32.060   -3.307021   10.178065    7.774333

----------------------------------------------
CARTESIAN COORDINATES OF FRAGMENTS (ANGSTROEM)
----------------------------------------------

 FRAGMENT 1 
  C     0.000000    0.000000    1.820000
  N     1.178000   -0.196000    2.473000
  C     1.255000   -0.207000    3.829000
  C     0.105000   -0.016000    4.595000
  C    -1.116000    0.187000    3.955000
  C    -1.192000    0.198000    2.551000

 FRAGMENT 2 
  N    -2.456000    0.409000    1.893000
  O    -2.541000    0.423000    0.648000
  O    -3.602000    0.600000    2.632000
  F     0.000000    0.000000    0.470000
  H     2.209000   -0.366000    4.313000
  H     0.163000   -0.026000    5.676000
  H    -2.005000    0.335000    4.557000

 FRAGMENT 3 
  C    -2.201000    6.773000    5.174000
  H    -3.289000    6.872000    5.217000
  H    -1.774000    7.699000    4.779000
  H    -1.819000    6.608000    6.186000

 FRAGMENT 4 
  S    -1.750000    5.386000    4.114000

--------------------------------
INTERNAL COORDINATES (ANGSTROEM)
--------------------------------
 C      0   0   0     0.000000000000     0.00000000     0.00000000
 N      1   0   0     1.361069065110     0.00000000     0.00000000
 C      2   1   0     1.358228993948   121.95243626     0.00000000
 C      3   2   1     1.394896770374   120.02620694     0.10655554
 C      4   3   2     1.393431017309   119.34983770   359.90435571
 C      5   4   3     1.406098502951   120.47178172     0.08537773
 N      6   5   4     1.440548853736   120.30882193   180.03842131
 O      7   6   5     1.247976762604   121.13704526   179.93147861
 O      7   6   5     1.376923382037   120.36156660   359.90709941
 F      1   2   3     1.350000000000   118.67037638   179.91115691
 H      3   2   1     1.081504969938   119.86701156   179.98746005
 H      4   3   2     1.082601034546   120.19197482   179.89186186
 H      5   4   3     1.083803026384   118.91636700   180.02085854
 C     13   5   4     6.470467448338   102.33831190    91.63348882
 H     14  13   5     1.093340752007    97.12229416   148.21267041
 H     14  13   5     1.093540122721   142.77538622    13.16290513
 H     14  13   5     1.094208846610    85.84699347   256.81505185
 S     14  13   5     1.802989184660    33.99808437    32.70866583

---------------------------
INTERNAL COORDINATES (A.U.)
---------------------------
 C      0   0   0     0.000000000000     0.00000000     0.00000000
 N      1   0   0     2.572047782411     0.00000000     0.00000000
 C      2   1   0     2.566680825712   121.95243626     0.00000000
 C      3   2   1     2.635972881098   120.02620694     0.10655554
 C      4   3   2     2.633203009226   119.34983770   359.90435571
 C      5   4   3     2.657141087893   120.47178172     0.08537773
 N      6   5   4     2.722242816095   120.30882193   180.03842131
 O      7   6   5     2.358334302820   121.13704526   179.93147861
 O      7   6   5     2.602008099442   120.36156660   359.90709941
 F      1   2   3     2.551130280794   118.67037638   179.91115691
 H      3   2   1     2.043748205657   119.86701156   179.98746005
 H      4   3   2     2.045819467592   120.19197482   179.89186186
 H      5   4   3     2.048090902982   118.91636700   180.02085854
 C     13   5   4    12.227411435811   102.33831190    91.63348882
 H     14  13   5     2.066114592349    97.12229416   148.21267041
 H     14  13   5     2.066491348397   142.77538622    13.16290513
 H     14  13   5     2.067755053407    85.84699347   256.81505185
 S     14  13   5     3.407155781429    33.99808437    32.70866583

---------------------
BASIS SET INFORMATION
---------------------
There are 6 groups of distinct atoms

 Group   1 Type C   : 12s6p1d contracted to 5s4p1d pattern {63111/3111/1}
 Group   2 Type N   : 12s6p1d contracted to 5s4p1d pattern {63111/3111/1}
 Group   3 Type O   : 12s6p1d contracted to 5s4p1d pattern {63111/3111/1}
 Group   4 Type F   : 12s6p1d contracted to 5s4p1d pattern {63111/3111/1}
 Group   5 Type H   : 6s1p contracted to 4s1p pattern {3111/1}
 Group   6 Type S   : 14s10p1d contracted to 7s6p1d pattern {6311111/421111/1}

Atom   0C    basis set group =>   1
Atom   1N    basis set group =>   2
Atom   2C    basis set group =>   1
Atom   3C    basis set group =>   1
Atom   4C    basis set group =>   1
Atom   5C    basis set group =>   1
Atom   6N    basis set group =>   2
Atom   7O    basis set group =>   3
Atom   8O    basis set group =>   3
Atom   9F    basis set group =>   4
Atom  10H    basis set group =>   5
Atom  11H    basis set group =>   5
Atom  12H    basis set group =>   5
Atom  13C    basis set group =>   1
Atom  14H    basis set group =>   5
Atom  15H    basis set group =>   5
Atom  16H    basis set group =>   5
Atom  17S    basis set group =>   6
---------------------------------
AUXILIARY/J BASIS SET INFORMATION
---------------------------------
There are 6 groups of distinct atoms

 Group   1 Type C   : 12s5p4d2f1g contracted to 6s4p3d1f1g pattern {711111/2111/211/2/1}
 Group   2 Type N   : 12s5p4d2f1g contracted to 6s4p3d1f1g pattern {711111/2111/211/2/1}
 Group   3 Type O   : 12s5p4d2f1g contracted to 6s4p3d1f1g pattern {711111/2111/211/2/1}
 Group   4 Type F   : 12s5p4d2f1g contracted to 6s4p3d1f1g pattern {711111/2111/211/2/1}
 Group   5 Type H   : 5s2p1d contracted to 3s1p1d pattern {311/2/1}
 Group   6 Type S   : 14s5p5d2f1g contracted to 8s4p3d1f1g pattern {71111111/2111/311/2/1}

Atom   0C    basis set group =>   1
Atom   1N    basis set group =>   2
Atom   2C    basis set group =>   1
Atom   3C    basis set group =>   1
Atom   4C    basis set group =>   1
Atom   5C    basis set group =>   1
Atom   6N    basis set group =>   2
Atom   7O    basis set group =>   3
Atom   8O    basis set group =>   3
Atom   9F    basis set group =>   4
Atom  10H    basis set group =>   5
Atom  11H    basis set group =>   5
Atom  12H    basis set group =>   5
Atom  13C    basis set group =>   1
Atom  14H    basis set group =>   5
Atom  15H    basis set group =>   5
Atom  16H    basis set group =>   5
Atom  17S    basis set group =>   6


           ************************************************************
           *        Program running with 24 parallel MPI-processes    *
           *              working on a common directory               *
           ************************************************************
------------------------------------------------------------------------------
                           ORCA GTO INTEGRAL CALCULATION
                           -- RI-GTO INTEGRALS CHOSEN --
------------------------------------------------------------------------------
------------------------------------------------------------------------------
                   ___                                                        
                  /   \      - P O W E R E D   B Y -                         
                 /     \                                                     
                 |  |  |   _    _      __       _____    __    __             
                 |  |  |  | |  | |    /  \     |  _  \  |  |  /  |          
                  \  \/   | |  | |   /    \    | | | |  |  | /  /          
                 / \  \   | |__| |  /  /\  \   | |_| |  |  |/  /          
                |  |  |   |  __  | /  /__\  \  |    /   |      \           
                |  |  |   | |  | | |   __   |  |    \   |  |\   \          
                \     /   | |  | | |  |  |  |  | |\  \  |  | \   \       
                 \___/    |_|  |_| |__|  |__|  |_| \__\ |__|  \__/        
                                                                              
                      - O R C A' S   B I G   F R I E N D -                    
                                      &                                       
                       - I N T E G R A L  F E E D E R -                       
                                                                              
 v1 FN, 2020, v2 2021                                                         
------------------------------------------------------------------------------


Reading SHARK input file structure_opt.SHARKINP.tmp ... ok
----------------------
SHARK INTEGRAL PACKAGE
----------------------

Number of atoms                             ...     18
Number of basis functions                   ...    314
Number of shells                            ...    154
Maximum angular momentum                    ...      2
Integral batch strategy                     ... SHARK/LIBINT Hybrid
RI-J (if used) integral strategy            ... SPLIT-RIJ (Revised 2003 algorithm where possible)
Printlevel                                  ...      1
Contraction scheme used                     ... SEGMENTED contraction
Coulomb Range Separation                    ... NOT USED
Exchange Range Separation                   ... Long Range
   Mu parameter                             ...  0.300000
   Scaling (regular/separated)              ...  0.157706  0.842294
Finite Nucleus Model                        ... NOT USED
Auxiliary Coulomb fitting basis             ... AVAILABLE
   # of basis functions in Aux-J            ...    656
   # of shells in Aux-J                     ...    212
   Maximum angular momentum in Aux-J        ...      4
Auxiliary J/K fitting basis                 ... NOT available
Auxiliary Correlation fitting basis         ... NOT available
Auxiliary 'external' fitting basis          ... NOT available
Integral threshold                          ...     2.500000e-11
Primitive cut-off                           ...     2.500000e-12
Primitive pair pre-selection threshold      ...     2.500000e-12

Calculating pre-screening integrals         ... done (  0.0 sec) Dimension = 154
Organizing shell pair data                  ... done (  0.3 sec)
Shell pair information
Total number of shell pairs                 ...     11935
Shell pairs after pre-screening             ...      9325
Total number of primitive shell pairs       ...     38500
Primitive shell pairs kept                  ...     21210
          la=0 lb=0:   2874 shell pairs
          la=1 lb=0:   3838 shell pairs
          la=1 lb=1:   1312 shell pairs
          la=2 lb=0:    742 shell pairs
          la=2 lb=1:    506 shell pairs
          la=2 lb=2:     53 shell pairs

Calculating one electron integrals          ... done (  0.0 sec)
Calculating RI/J V-Matrix + Cholesky decomp.... done (  0.0 sec)
Calculating Nuclear repulsion               ... done (  0.0 sec) ENN=    698.861745806372 Eh

SHARK setup successfully completed in   1.0 seconds

Maximum memory used throughout the entire GTOINT-calculation: 17.9 MB


           ************************************************************
           *        Program running with 24 parallel MPI-processes    *
           *              working on a common directory               *
           ************************************************************
-------------------------------------------------------------------------------
                                 ORCA SCF
-------------------------------------------------------------------------------

------------
SCF SETTINGS
------------
Hamiltonian:
 Density Functional     Method          .... DFT(GTOs)
 Exchange Functional    Exchange        .... WB97X
 Correlation Functional Correlation     .... WB97X
 Gradients option       PostSCFGGA      .... off
 Hybrid DFT is turned on
   Fraction HF Exchange ScalHFX         ....  0.157706
   Scaling of DF-GGA-X  ScalDFX         ....  0.000000
   Scaling of DF-GGA-C  ScalDFC         ....  1.000000
   Scaling of DF-LDA-C  ScalLDAC        ....  1.000000
   Perturbative correction              ....  0.000000
   Density functional embedding theory  .... OFF
 Long-range corrected/Screened/Range-Separated Hybrid DFT is turned on
   Amount of maximum screened exact exchange              ....  0.842294
   Range separation parameter mu (erf(mu*r12)/r12)        ....  0.300000
 RI-approximation to the Coulomb term is turned on
   Number of AuxJ basis functions       .... 656
   RIJ-COSX (HFX calculated with COS-X)).... on


General Settings:
 Integral files         IntName         .... structure_opt
 Hartree-Fock type      HFTyp           .... RHF
 Total Charge           Charge          ....   -1
 Multiplicity           Mult            ....    1
 Number of Electrons    NEL             ....   98
 Basis Dimension        Dim             ....  314
 Nuclear Repulsion      ENuc            ....    698.8617458064 Eh

Convergence Acceleration:
 DIIS                   CNVDIIS         .... on
   Start iteration      DIISMaxIt       ....    12
   Startup error        DIISStart       ....  0.200000
   # of expansion vecs  DIISMaxEq       ....     5
   Bias factor          DIISBfac        ....   1.050
   Max. coefficient     DIISMaxC        ....  10.000
 Trust-Rad. Augm. Hess. CNVTRAH         .... auto
   Auto Start mean grad. ratio tolernc. ....  1.125000
   Auto Start start iteration           ....    20
   Auto Start num. interpolation iter.  ....    10
   Max. Number of Micro iterations      ....    16
   Max. Number of Macro iterations      .... Maxiter - #DIIS iter
   Number of Davidson start vectors     ....     2
   Converg. threshold I  (grad. norm)   ....   1.000e-05
   Converg. threshold II (energy diff.) ....   1.000e-08
   Grad. Scal. Fac. for Micro threshold ....   0.100
   Minimum threshold for Micro iter.    ....   0.010
   NR start threshold (gradient norm)   ....   0.001
   Initial trust radius                 ....   0.400
   Minimum AH scaling param. (alpha)    ....   1.000
   Maximum AH scaling param. (alpha)    .... 1000.000
   Orbital update algorithm             .... Taylor
   White noise on init. David. guess    .... on
   Maximum white noise                  ....   0.010
   Quad. conv. algorithm                .... NR
 SOSCF                  CNVSOSCF        .... on
   Start iteration      SOSCFMaxIt      ....   150
   Startup grad/error   SOSCFStart      ....  0.003300
 Level Shifting         CNVShift        .... on
   Level shift para.    LevelShift      ....    0.2500
   Turn off err/grad.   ShiftErr        ....    0.0010
 Zerner damping         CNVZerner       .... off
 Static damping         CNVDamp         .... on
   Fraction old density DampFac         ....    0.7000
   Max. Damping (<1)    DampMax         ....    0.9800
   Min. Damping (>=0)   DampMin         ....    0.0000
   Turn off err/grad.   DampErr         ....    0.1000
 Fernandez-Rico         CNVRico         .... off

SCF Procedure:
 Maximum # iterations   MaxIter         ....   125
 SCF integral mode      SCFMode         .... Direct
   Integral package                     .... SHARK and LIBINT hybrid scheme
 Reset frequency        DirectResetFreq ....    20
 Integral Threshold     Thresh          ....  2.500e-11 Eh
 Primitive CutOff       TCut            ....  2.500e-12 Eh

Convergence Tolerance:
 Convergence Check Mode ConvCheckMode   .... Total+1el-Energy
 Convergence forced     ConvForced      .... 0
 Energy Change          TolE            ....  1.000e-08 Eh
 1-El. energy change                    ....  1.000e-05 Eh
 Orbital Gradient       TolG            ....  1.000e-05
 Orbital Rotation angle TolX            ....  1.000e-05
 DIIS Error             TolErr          ....  5.000e-07


Diagonalization of the overlap matrix:
Smallest eigenvalue                        ... 4.234e-06
Time for diagonalization                   ...    0.016 sec
Threshold for overlap eigenvalues          ... 1.000e-08
Number of eigenvalues below threshold      ... 0
Time for construction of square roots      ...    0.017 sec
Total time needed                          ...    0.034 sec

Time for model grid setup =    0.173 sec

------------------------------
INITIAL GUESS: MODEL POTENTIAL
------------------------------
Loading Hartree-Fock densities                     ... done
Calculating cut-offs                               ... done
Initializing the effective Hamiltonian             ... done
Setting up the integral package (SHARK)            ... done
Starting the Coulomb interaction                   ... done (   0.1 sec)
Reading the grid                                   ... done
Mapping shells                                     ... done
Starting the XC term evaluation                    ... done (   0.0 sec)
  promolecular density results
     # of electrons  =     96.996120478
     EX              =    -96.552449629
     EC              =     -3.327224762
     EX+EC           =    -99.879674390
Transforming the Hamiltonian                       ... done (   0.0 sec)
Diagonalizing the Hamiltonian                      ... done (   0.0 sec)
Back transforming the eigenvectors                 ... done (   0.0 sec)
Now organizing SCF variables                       ... done
                      ------------------
                      INITIAL GUESS DONE (   0.3 sec)
                      ------------------
-------------------
DFT GRID GENERATION
-------------------

General Integration Accuracy     IntAcc      ... 4.388
Radial Grid Type                 RadialGrid  ... OptM3 with GC (2021)
Angular Grid (max. ang.)         AngularGrid ... 4 (Lebedev-302)
Angular grid pruning method      GridPruning ... 4 (adaptive)
Weight generation scheme         WeightScheme... Becke
Basis function cutoff            BFCut       ... 1.0000e-11
Integration weight cutoff        WCut        ... 1.0000e-14
Angular grids for H and He will be reduced by one unit
Partially contracted basis set               ... off
Rotationally invariant grid construction     ... off

Total number of grid points                  ...    98088
Total number of batches                      ...     1543
Average number of points per batch           ...       63
Average number of grid points per atom       ...     5449
Time for grid setup =    0.673 sec

--------------------
COSX GRID GENERATION
--------------------

GRIDX 1
-------
General Integration Accuracy     IntAcc      ... 3.816
Radial Grid Type                 RadialGrid  ... OptM3 with GC (2021)
Angular Grid (max. ang.)         AngularGrid ... 1 (Lebedev-50)
Angular grid pruning method      GridPruning ... 4 (adaptive)
Weight generation scheme         WeightScheme... Becke
Basis function cutoff            BFCut       ... 1.0000e-11
Integration weight cutoff        WCut        ... 1.0000e-14
Angular grids for H and He will be reduced by one unit
Partially contracted basis set               ... on
Rotationally invariant grid construction     ... off

Total number of grid points                  ...    12247
Total number of batches                      ...      201
Average number of points per batch           ...       60
Average number of grid points per atom       ...      680
UseSFitting                                  ... on

GRIDX 2
-------
General Integration Accuracy     IntAcc      ... 4.020
Radial Grid Type                 RadialGrid  ... OptM3 with GC (2021)
Angular Grid (max. ang.)         AngularGrid ... 2 (Lebedev-110)
Angular grid pruning method      GridPruning ... 4 (adaptive)
Weight generation scheme         WeightScheme... Becke
Basis function cutoff            BFCut       ... 1.0000e-11
Integration weight cutoff        WCut        ... 1.0000e-14
Angular grids for H and He will be reduced by one unit
Partially contracted basis set               ... on
Rotationally invariant grid construction     ... off

Total number of grid points                  ...    30990
Total number of batches                      ...      495
Average number of points per batch           ...       62
Average number of grid points per atom       ...     1722
UseSFitting                                  ... on

GRIDX 3
-------
General Integration Accuracy     IntAcc      ... 4.338
Radial Grid Type                 RadialGrid  ... OptM3 with GC (2021)
Angular Grid (max. ang.)         AngularGrid ... 3 (Lebedev-194)
Angular grid pruning method      GridPruning ... 4 (adaptive)
Weight generation scheme         WeightScheme... Becke
Basis function cutoff            BFCut       ... 1.0000e-11
Integration weight cutoff        WCut        ... 1.0000e-14
Angular grids for H and He will be reduced by one unit
Partially contracted basis set               ... on
Rotationally invariant grid construction     ... off

Total number of grid points                  ...    68874
Total number of batches                      ...     1087
Average number of points per batch           ...       63
Average number of grid points per atom       ...     3826
UseSFitting                                  ... on

Time for X-Grid setup             =    0.868 sec


--------------------
CPCM SOLVATION MODEL
--------------------
CPCM parameters:
  Epsilon                                         ...      78.3550
  Refrac                                          ...       1.3328
  Rsolv                                           ...       1.3000
  Surface type                                    ... GAUSSIAN VDW
  Epsilon function type                           ...         CPCM
Solvent:                                     ... WATER
SMD-CDS solvent descriptors:
  Soln                                       ...    1.3328
  Soln25                                     ...    1.3323
  Sola                                       ...    0.0000
  Solb                                       ...    0.0000
  Solg                                       ...    0.0000
  Solc                                       ...    0.0000
  Solh                                       ...    0.0000
Radii:
 Radius for C  used is    3.4960 Bohr (=   1.8500 Ang.)
 Radius for N  used is    3.5716 Bohr (=   1.8900 Ang.)
 Radius for O  used is    2.8724 Bohr (=   1.5200 Ang.)
 Radius for F  used is    3.2692 Bohr (=   1.7300 Ang.)
 Radius for H  used is    2.2677 Bohr (=   1.2000 Ang.)
 Radius for S  used is    4.7054 Bohr (=   2.4900 Ang.)
Calculating surface                               ...        done! (  0.0s)
GEPOL surface points                              ...         1149
GEPOL Volume                                      ...    1371.4719
GEPOL Surface-area                                ...     850.5053
Calculating surface distance matrix               ...        done! (  0.0s)
Performing Cholesky decomposition & store         ...        done! (  0.1s)
Overall time for CPCM initialization              ...                 0.1s
--------------
SCF ITERATIONS
--------------
ITER       Energy         Delta-E        Max-DP      RMS-DP      [F,P]     Damp
               ***  Starting incremental Fock matrix formation  ***
  0   -989.8664346392   0.000000000000 0.34685239  0.00334630  0.2373322 0.7000
  1   -990.0286529746  -0.162218335443 0.30980761  0.00299675  0.1165651 0.7000
                               ***Turning on DIIS***
  2   -990.1011012701  -0.072448295496 1.85312474  0.01125400  0.0609904 0.0000
  3   -990.2251737722  -0.124072502068 0.88146978  0.00457746  0.0549828 0.0000
  4   -990.2443325222  -0.019158750050 0.35926629  0.00187103  0.0124976 0.0000
  5   -990.2455107764  -0.001178254136 0.17840354  0.00096267  0.0061783 0.0000
                      *** Initiating the SOSCF procedure ***
                           *** Shutting down DIIS ***
                      *** Re-Reading the Fockian *** 
                      *** Removing any level shift *** 
ITER      Energy       Delta-E        Grad      Rot      Max-DP    RMS-DP
  6   -990.24574402  -0.0002332407  0.001501  0.001501  0.061105  0.000346
               *** Restarting incremental Fock matrix formation ***
  7   -990.24582165  -0.0000776346  0.000981  0.002408  0.027287  0.000196
  8   -990.24585983  -0.0000381760  0.000339  0.002538  0.009414  0.000159
  9   -990.24586587  -0.0000060452  0.000670  0.000693  0.012085  0.000094
 10   -990.24587253  -0.0000066611  0.000109  0.000182  0.003885  0.000027
 11   -990.24587261  -0.0000000751  0.000092  0.000125  0.003331  0.000018
 12   -990.24587296  -0.0000003514  0.000015  0.000041  0.005110  0.000033
 13   -990.24587296   0.0000000002  0.000007  0.000033  0.014778  0.000094
 14   -990.24587296   0.0000000000  0.000005  0.000011  0.007262  0.000043
                  ***Gradient check signals convergence***
              ***Rediagonalizing the Fockian in SOSCF/NRSCF***

               *****************************************************
               *                     SUCCESS                       *
               *           SCF CONVERGED AFTER  15 CYCLES          *
               *****************************************************

Old exchange energy                            =    -28.432350651 Eh
New exchange energy                            =    -28.432349339 Eh
Exchange energy change after final integration =      0.000001312 Eh
Total energy after final integration           =   -990.245871652 Eh
Final COS-X integration done in                =     3.640 sec

SMD CDS free energy correction energy :                 5.87302     Kcal/mol
Total Energy after SMD CDS correction =              -990.236512394 Eh

----------------
TOTAL SCF ENERGY
----------------

Total Energy       :         -990.23651239 Eh          -26945.70540 eV

Components:
Nuclear Repulsion  :          698.86174581 Eh           19016.99491 eV
Electronic Energy  :        -1689.09825820 Eh          -45962.70030 eV
One Electron Energy:        -2758.09052532 Eh          -75051.45874 eV
Two Electron Energy:         1068.99226711 Eh           29088.75843 eV
Max COSX asymmetry :            0.00000236 Eh               0.00006 eV
CPCM Dielectric    :           -0.12735902 Eh              -3.46562 eV
SMD CDS (Gcds)     :            0.00935926 Eh               0.25468 eV

Virial components:
Potential Energy   :        -1977.46551539 Eh          -53809.57230 eV
Kinetic Energy     :          987.22900299 Eh           26863.86690 eV
Virial Ratio       :            2.00304642


DFT components:
N(Alpha)           :       48.999983033540 electrons
N(Beta)            :       48.999983033540 electrons
N(Total)           :       97.999966067080 electrons
E(XC)              :      -73.337841069264 Eh       
DFET-embed. en.    :        0.000000000000 Eh       
CPCM Solvation Model Properties:
Surface-charge          :            0.94831059
Charge-correction       :           -0.00580249 Eh              -0.15789 eV
Free-energy (cav+disp)  :            0.00935926 Eh               0.25468 eV

---------------
SCF CONVERGENCE
---------------

  Last Energy change         ...   -3.8089e-09  Tolerance :   1.0000e-08
  Last MAX-Density change    ...    3.5527e-15  Tolerance :   1.0000e-07
  Last RMS-Density change    ...    4.1039e-17  Tolerance :   5.0000e-09
  Last Orbital Gradient      ...    1.9410e-06  Tolerance :   1.0000e-05
  Last Orbital Rotation      ...    1.7556e-06  Tolerance :   1.0000e-05

             **** THE GBW FILE WAS UPDATED (structure_opt.gbw) ****
             **** DENSITY structure_opt.scfp WAS UPDATED ****
             **** ENERGY FILE WAS UPDATED (structure_opt.en.tmp) ****
             **** THE GBW FILE WAS UPDATED (structure_opt.gbw) ****
             **** DENSITY structure_opt.scfp WAS UPDATED ****
----------------
ORBITAL ENERGIES
----------------

  NO   OCC          E(Eh)            E(eV) 
   0   2.0000     -88.720634     -2414.2112 
   1   2.0000     -24.793251      -674.6587 
   2   2.0000     -19.275456      -524.5118 
   3   2.0000     -19.243825      -523.6511 
   4   2.0000     -14.669668      -399.1820 
   5   2.0000     -14.435430      -392.8080 
   6   2.0000     -10.437547      -284.0201 
   7   2.0000     -10.363967      -282.0179 
   8   2.0000     -10.338044      -281.3125 
   9   2.0000     -10.320983      -280.8482 
  10   2.0000     -10.290320      -280.0138 
  11   2.0000     -10.236226      -278.5419 
  12   2.0000      -7.916483      -215.4185 
  13   2.0000      -5.879643      -159.9932 
  14   2.0000      -5.872255      -159.7922 
  15   2.0000      -5.872214      -159.7911 
  16   2.0000      -1.396285       -37.9948 
  17   2.0000      -1.348061       -36.6826 
  18   2.0000      -1.151315       -31.3289 
  19   2.0000      -1.109117       -30.1806 
  20   2.0000      -1.008224       -27.4352 
  21   2.0000      -0.943215       -25.6662 
  22   2.0000      -0.873836       -23.7783 
  23   2.0000      -0.836427       -22.7603 
  24   2.0000      -0.796487       -21.6735 
  25   2.0000      -0.769034       -20.9265 
  26   2.0000      -0.705864       -19.2075 
  27   2.0000      -0.686413       -18.6782 
  28   2.0000      -0.669216       -18.2103 
  29   2.0000      -0.665407       -18.1066 
  30   2.0000      -0.661557       -18.0019 
  31   2.0000      -0.633116       -17.2280 
  32   2.0000      -0.620270       -16.8784 
  33   2.0000      -0.615066       -16.7368 
  34   2.0000      -0.563683       -15.3386 
  35   2.0000      -0.536907       -14.6100 
  36   2.0000      -0.527794       -14.3620 
  37   2.0000      -0.527759       -14.3610 
  38   2.0000      -0.494578       -13.4581 
  39   2.0000      -0.494326       -13.4513 
  40   2.0000      -0.455940       -12.4068 
  41   2.0000      -0.432352       -11.7649 
  42   2.0000      -0.421485       -11.4692 
  43   2.0000      -0.416277       -11.3275 
  44   2.0000      -0.407919       -11.1000 
  45   2.0000      -0.391060       -10.6413 
  46   2.0000      -0.384747       -10.4695 
  47   2.0000      -0.259235        -7.0541 
  48   2.0000      -0.259211        -7.0535 
  49   0.0000      -0.064681        -1.7601 
  50   0.0000       0.022687         0.6174 
  51   0.0000       0.050366         1.3705 
  52   0.0000       0.055409         1.5077 
  53   0.0000       0.061675         1.6783 
  54   0.0000       0.070083         1.9071 
  55   0.0000       0.073634         2.0037 
  56   0.0000       0.084873         2.3095 
  57   0.0000       0.093716         2.5501 
  58   0.0000       0.095860         2.6085 
  59   0.0000       0.100203         2.7267 
  60   0.0000       0.114300         3.1103 
  61   0.0000       0.119679         3.2566 
  62   0.0000       0.127219         3.4618 
  63   0.0000       0.131964         3.5909 
  64   0.0000       0.135289         3.6814 
  65   0.0000       0.143904         3.9158 
  66   0.0000       0.154244         4.1972 
  67   0.0000       0.162867         4.4318 
  68   0.0000       0.165970         4.5163 
  69   0.0000       0.166967         4.5434 
  70   0.0000       0.169363         4.6086 
  71   0.0000       0.176833         4.8119 
  72   0.0000       0.177664         4.8345 
  73   0.0000       0.180322         4.9068 
  74   0.0000       0.184247         5.0136 
  75   0.0000       0.191823         5.2198 
  76   0.0000       0.195491         5.3196 
  77   0.0000       0.196121         5.3367 
  78   0.0000       0.202503         5.5104 
  79   0.0000       0.209102         5.6900 
  80   0.0000       0.220472         5.9993 
  81   0.0000       0.222264         6.0481 
  82   0.0000       0.225608         6.1391 
  83   0.0000       0.234068         6.3693 
  84   0.0000       0.235724         6.4144 
  85   0.0000       0.248119         6.7517 
  86   0.0000       0.251207         6.8357 
  87   0.0000       0.256894         6.9904 
  88   0.0000       0.266654         7.2560 
  89   0.0000       0.271345         7.3837 
  90   0.0000       0.273916         7.4536 
  91   0.0000       0.279004         7.5921 
  92   0.0000       0.281079         7.6485 
  93   0.0000       0.283941         7.7264 
  94   0.0000       0.293587         7.9889 
  95   0.0000       0.298558         8.1242 
  96   0.0000       0.299760         8.1569 
  97   0.0000       0.312001         8.4900 
  98   0.0000       0.319676         8.6988 
  99   0.0000       0.327608         8.9147 
 100   0.0000       0.336060         9.1447 
 101   0.0000       0.341184         9.2841 
 102   0.0000       0.349825         9.5192 
 103   0.0000       0.354561         9.6481 
 104   0.0000       0.358124         9.7450 
 105   0.0000       0.363297         9.8858 
 106   0.0000       0.374375        10.1872 
 107   0.0000       0.384071        10.4511 
 108   0.0000       0.394550        10.7362 
 109   0.0000       0.403721        10.9858 
 110   0.0000       0.408752        11.1227 
 111   0.0000       0.417398        11.3580 
 112   0.0000       0.421809        11.4780 
 113   0.0000       0.435548        11.8519 
 114   0.0000       0.440447        11.9852 
 115   0.0000       0.453342        12.3361 
 116   0.0000       0.467590        12.7238 
 117   0.0000       0.473211        12.8767 
 118   0.0000       0.482107        13.1188 
 119   0.0000       0.490616        13.3503 
 120   0.0000       0.497217        13.5300 
 121   0.0000       0.501453        13.6452 
 122   0.0000       0.521911        14.2019 
 123   0.0000       0.530601        14.4384 
 124   0.0000       0.531056        14.4508 
 125   0.0000       0.551279        15.0011 
 126   0.0000       0.585905        15.9433 
 127   0.0000       0.614827        16.7303 
 128   0.0000       0.619319        16.8525 
 129   0.0000       0.635768        17.3001 
 130   0.0000       0.646956        17.6046 
 131   0.0000       0.651038        17.7157 
 132   0.0000       0.661979        18.0134 
 133   0.0000       0.681130        18.5345 
 134   0.0000       0.692369        18.8403 
 135   0.0000       0.705657        19.2019 
 136   0.0000       0.713895        19.4261 
 137   0.0000       0.731453        19.9038 
 138   0.0000       0.747150        20.3310 
 139   0.0000       0.771345        20.9894 
 140   0.0000       0.772408        21.0183 
 141   0.0000       0.779750        21.2181 
 142   0.0000       0.811649        22.0861 
 143   0.0000       0.831294        22.6207 
 144   0.0000       0.843050        22.9406 
 145   0.0000       0.852320        23.1928 
 146   0.0000       0.858589        23.3634 
 147   0.0000       0.874911        23.8075 
 148   0.0000       0.903535        24.5864 
 149   0.0000       0.911826        24.8121 
 150   0.0000       0.922017        25.0894 
 151   0.0000       0.940187        25.5838 
 152   0.0000       0.955585        26.0028 
 153   0.0000       0.959738        26.1158 
 154   0.0000       0.962613        26.1940 
 155   0.0000       0.975305        26.5394 
 156   0.0000       0.981941        26.7200 
 157   0.0000       0.986012        26.8307 
 158   0.0000       1.003501        27.3067 
 159   0.0000       1.005541        27.3621 
 160   0.0000       1.009636        27.4736 
 161   0.0000       1.036863        28.2145 
 162   0.0000       1.048496        28.5310 
 163   0.0000       1.062689        28.9172 
 164   0.0000       1.074726        29.2448 
 165   0.0000       1.081051        29.4169 
 166   0.0000       1.084058        29.4987 
 167   0.0000       1.141652        31.0659 
 168   0.0000       1.148761        31.2594 
 169   0.0000       1.154103        31.4047 
 170   0.0000       1.174251        31.9530 
 171   0.0000       1.198381        32.6096 
 172   0.0000       1.204502        32.7762 
 173   0.0000       1.215161        33.0662 
 174   0.0000       1.249968        34.0133 
 175   0.0000       1.262446        34.3529 
 176   0.0000       1.278260        34.7832 
 177   0.0000       1.280423        34.8421 
 178   0.0000       1.284201        34.9449 
 179   0.0000       1.294608        35.2281 
 180   0.0000       1.299405        35.3586 
 181   0.0000       1.358226        36.9592 
 182   0.0000       1.397536        38.0289 
 183   0.0000       1.408152        38.3178 
 184   0.0000       1.474523        40.1238 
 185   0.0000       1.515160        41.2296 
 186   0.0000       1.544056        42.0159 
 187   0.0000       1.587601        43.2008 
 188   0.0000       1.589372        43.2490 
 189   0.0000       1.591608        43.3099 
 190   0.0000       1.618554        44.0431 
 191   0.0000       1.632999        44.4362 
 192   0.0000       1.656763        45.0828 
 193   0.0000       1.656827        45.0846 
 194   0.0000       1.695643        46.1408 
 195   0.0000       1.696495        46.1640 
 196   0.0000       1.706157        46.4269 
 197   0.0000       1.717586        46.7379 
 198   0.0000       1.749749        47.6131 
 199   0.0000       1.763100        47.9764 
 200   0.0000       1.787768        48.6477 
 201   0.0000       1.811172        49.2845 
 202   0.0000       1.812915        49.3319 
 203   0.0000       1.817723        49.4628 
 204   0.0000       1.844239        50.1843 
 205   0.0000       1.859125        50.5894 
 206   0.0000       1.870716        50.9048 
 207   0.0000       1.911798        52.0227 
 208   0.0000       1.934787        52.6482 
 209   0.0000       1.947980        53.0072 
 210   0.0000       1.974178        53.7201 
 211   0.0000       1.977299        53.8050 
 212   0.0000       1.992595        54.2213 
 213   0.0000       2.012464        54.7619 
 214   0.0000       2.033395        55.3315 
 215   0.0000       2.045711        55.6666 
 216   0.0000       2.061059        56.0843 
 217   0.0000       2.113309        57.5061 
 218   0.0000       2.141507        58.2734 
 219   0.0000       2.148939        58.4756 
 220   0.0000       2.168885        59.0184 
 221   0.0000       2.175463        59.1974 
 222   0.0000       2.178080        59.2686 
 223   0.0000       2.206767        60.0492 
 224   0.0000       2.293068        62.3976 
 225   0.0000       2.324385        63.2497 
 226   0.0000       2.333200        63.4896 
 227   0.0000       2.334566        63.5268 
 228   0.0000       2.400492        65.3207 
 229   0.0000       2.431748        66.1712 
 230   0.0000       2.495125        67.8958 
 231   0.0000       2.564660        69.7880 
 232   0.0000       2.593798        70.5808 
 233   0.0000       2.596449        70.6530 
 234   0.0000       2.605382        70.8960 
 235   0.0000       2.627866        71.5079 
 236   0.0000       2.662220        72.4427 
 237   0.0000       2.663602        72.4803 
 238   0.0000       2.673418        72.7474 
 239   0.0000       2.673806        72.7580 
 240   0.0000       2.692912        73.2779 
 241   0.0000       2.785347        75.7932 
 242   0.0000       2.799345        76.1741 
 243   0.0000       2.829534        76.9955 
 244   0.0000       2.845665        77.4345 
 245   0.0000       2.863927        77.9314 
 246   0.0000       2.872564        78.1664 
 247   0.0000       2.885822        78.5272 
 248   0.0000       2.899442        78.8978 
 249   0.0000       2.905375        79.0593 
 250   0.0000       2.937699        79.9388 
 251   0.0000       2.941205        80.0342 
 252   0.0000       2.961210        80.5786 
 253   0.0000       2.979602        81.0791 
 254   0.0000       2.987168        81.2850 
 255   0.0000       3.003084        81.7181 
 256   0.0000       3.015254        82.0492 
 257   0.0000       3.099255        84.3350 
 258   0.0000       3.153982        85.8242 
 259   0.0000       3.189306        86.7854 
 260   0.0000       3.269380        88.9643 
 261   0.0000       3.308238        90.0217 
 262   0.0000       3.309837        90.0652 
 263   0.0000       3.347673        91.0948 
 264   0.0000       3.368985        91.6747 
 265   0.0000       3.454574        94.0037 
 266   0.0000       3.500850        95.2630 
 267   0.0000       3.560703        96.8916 
 268   0.0000       3.596055        97.8536 
 269   0.0000       3.681568       100.1806 
 270   0.0000       3.704928       100.8162 
 271   0.0000       3.754637       102.1689 
 272   0.0000       3.853639       104.8628 
 273   0.0000       3.887206       105.7762 
 274   0.0000       3.889021       105.8256 
 275   0.0000       3.890437       105.8642 
 276   0.0000       3.905183       106.2654 
 277   0.0000       3.924815       106.7996 
 278   0.0000       4.013121       109.2026 
 279   0.0000       4.059900       110.4755 
 280   0.0000       4.120516       112.1249 
 281   0.0000       4.145039       112.7922 
 282   0.0000       4.169194       113.4495 
 283   0.0000       4.405850       119.8893 
 284   0.0000       4.480209       121.9127 
 285   0.0000       4.504291       122.5680 
 286   0.0000       4.762159       129.5849 
 287   0.0000       4.943328       134.5148 
 288   0.0000       5.074658       138.0885 
 289   0.0000       5.106506       138.9551 
 290   0.0000       5.193534       141.3232 
 291   0.0000       5.220250       142.0502 
 292   0.0000       5.314869       144.6249 
 293   0.0000       5.698876       155.0743 
 294   0.0000       6.131502       166.8466 
 295   0.0000       6.416090       174.5907 
 296   0.0000       6.542295       178.0249 
 297   0.0000       6.840566       186.1413 
 298   0.0000       7.984964       217.2819 
 299   0.0000      17.550780       477.5810 
 300   0.0000      17.554004       477.6687 
 301   0.0000      17.651628       480.3252 
 302   0.0000      23.651183       643.5814 
 303   0.0000      23.891545       650.1220 
 304   0.0000      23.984635       652.6551 
 305   0.0000      24.031692       653.9356 
 306   0.0000      24.071877       655.0291 
 307   0.0000      24.181733       658.0184 
 308   0.0000      35.376433       962.6417 
 309   0.0000      35.657856       970.2996 
 310   0.0000      49.902018      1357.9030 
 311   0.0000      49.964393      1359.6002 
 312   0.0000      66.792681      1817.5213 
 313   0.0000     188.975021      5142.2718 

--------------------
FRAGMENT INFORMATION
--------------------
Fragment  1:    0   1   2   3   4   5 
Fragment  2:    6   7   8   9  10  11  12 
Fragment  3:   13  14  15  16 
Fragment  4:   17 


                    ********************************
                    * MULLIKEN POPULATION ANALYSIS *
                    ********************************

-------------------------
MULLIKEN FRAGMENT CHARGES
-------------------------
 Fragment   0 :  -0.463649
 Fragment   1 :   0.466406
 Fragment   2 :  -0.043621
 Fragment   3 :  -0.959136
Sum of fragment charges:   -1.0000000

---------------------------------
MULLIKEN FRAGMENT OVERLAP CHARGES
---------------------------------
                  0          1          2          3    
      0      18.900954   0.452661  -0.000566  -0.003393
      1       0.452661  35.045113   0.000730   0.014160
      2      -0.000566   0.000730  11.666896  -0.651259
      3      -0.003393   0.014160  -0.651259  17.279382

-----------------------
MULLIKEN ATOMIC CHARGES
-----------------------
   0 C :   -0.086460
   1 N :   -0.203303
   2 C :   -0.289720
   3 C :   -0.281034
   4 C :    0.476414
   5 C :   -0.079547
   6 N :   -0.043818
   7 O :   -0.060480
   8 O :   -0.236534
   9 F :   -0.102061
  10 H :    0.296426
  11 H :    0.283446
  12 H :    0.329427
  13 C :   -0.428908
  14 H :    0.127777
  15 H :    0.128281
  16 H :    0.129230
  17 S :   -0.959136
Sum of atomic charges:   -1.0000000

--------------------------------
MULLIKEN REDUCED ORBITAL CHARGES
--------------------------------
  0 C s       :     3.324153  s :     3.324153
      pz      :     0.674065  p :     2.601890
      px      :     0.986291
      py      :     0.941534
      dz2     :     0.052752  d :     0.160417
      dxz     :     0.048830
      dyz     :     0.028426
      dx2y2   :     0.013771
      dxy     :     0.016638
  1 N s       :     3.622279  s :     3.622279
      pz      :     1.142996  p :     3.550501
      px      :     1.242192
      py      :     1.165313
      dz2     :     0.008165  d :     0.030524
      dxz     :     0.007239
      dyz     :     0.004758
      dx2y2   :     0.005502
      dxy     :     0.004859
  2 C s       :     3.376681  s :     3.376681
      pz      :     0.812599  p :     2.828897
      px      :     1.163338
      py      :     0.852960
      dz2     :     0.023586  d :     0.084141
      dxz     :     0.032189
      dyz     :     0.014800
      dx2y2   :     0.007218
      dxy     :     0.006347
  3 C s       :     3.225084  s :     3.225084
      pz      :     1.161942  p :     3.002790
      px      :     0.868675
      py      :     0.972173
      dz2     :     0.015289  d :     0.053160
      dxz     :     0.017414
      dyz     :     0.005092
      dx2y2   :     0.008218
      dxy     :     0.007148
  4 C s       :     2.487672  s :     2.487672
      pz      :     0.883601  p :     2.978839
      px      :     1.236149
      py      :     0.859089
      dz2     :     0.016552  d :     0.057075
      dxz     :     0.015849
      dyz     :     0.010555
      dx2y2   :     0.007215
      dxy     :     0.006904
  5 C s       :     3.305567  s :     3.305567
      pz      :     1.097059  p :     2.700844
      px      :     0.514513
      py      :     1.089272
      dz2     :     0.013626  d :     0.073137
      dxz     :     0.029771
      dyz     :     0.010339
      dx2y2   :     0.011217
      dxy     :     0.008184
  6 N s       :     3.558616  s :     3.558616
      pz      :     1.051993  p :     3.376221
      px      :     1.219704
      py      :     1.104525
      dz2     :     0.027716  d :     0.108981
      dxz     :     0.039353
      dyz     :     0.023076
      dx2y2   :     0.008551
      dxy     :     0.010286
  7 O s       :     3.783681  s :     3.783681
      pz      :     1.029058  p :     4.258104
      px      :     1.828151
      py      :     1.400894
      dz2     :     0.009709  d :     0.018695
      dxz     :     0.003511
      dyz     :     0.005305
      dx2y2   :     0.000102
      dxy     :     0.000067
  8 O s       :     3.823404  s :     3.823404
      pz      :     1.623938  p :     4.401015
      px      :     1.219050
      py      :     1.558027
      dz2     :     0.001059  d :     0.012116
      dxz     :     0.004900
      dyz     :     0.000879
      dx2y2   :     0.003118
      dxy     :     0.002159
  9 F s       :     3.918218  s :     3.918218
      pz      :     1.388917  p :     5.178511
      px      :     1.915901
      py      :     1.873694
      dz2     :     0.003096  d :     0.005331
      dxz     :     0.000997
      dyz     :     0.001201
      dx2y2   :     0.000027
      dxy     :     0.000009
 10 H s       :     0.679675  s :     0.679675
      pz      :     0.005481  p :     0.023899
      px      :     0.014118
      py      :     0.004299
 11 H s       :     0.691588  s :     0.691588
      pz      :     0.016376  p :     0.024967
      px      :     0.003656
      py      :     0.004934
 12 H s       :     0.645040  s :     0.645040
      pz      :     0.007753  p :     0.025533
      px      :     0.013381
      py      :     0.004399
 13 C s       :     3.288232  s :     3.288232
      pz      :     1.027334  p :     3.088032
      px      :     1.053705
      py      :     1.006994
      dz2     :     0.014754  d :     0.052645
      dxz     :     0.006045
      dyz     :     0.009476
      dx2y2   :     0.014414
      dxy     :     0.007955
 14 H s       :     0.849521  s :     0.849521
      pz      :     0.004677  p :     0.022703
      px      :     0.013290
      py      :     0.004736
 15 H s       :     0.849058  s :     0.849058
      pz      :     0.005760  p :     0.022661
      px      :     0.005975
      py      :     0.010926
 16 H s       :     0.848085  s :     0.848085
      pz      :     0.012154  p :     0.022685
      px      :     0.005706
      py      :     0.004826
 17 S s       :     5.997715  s :     5.997715
      pz      :     3.625914  p :    10.930025
      px      :     3.927678
      py      :     3.376432
      dz2     :     0.003229  d :     0.031396
      dxz     :     0.002786
      dyz     :     0.014177
      dx2y2   :     0.006529
      dxy     :     0.004675


                     *******************************
                     * LOEWDIN POPULATION ANALYSIS *
                     *******************************

------------------------
LOEWDIN FRAGMENT CHARGES
------------------------
 Fragment   0 :   0.048796
 Fragment   1 :  -0.058279
 Fragment   2 :  -0.353842
 Fragment   3 :  -0.636675

----------------------------
LOEWDIN FRAGMENT BOND ORDERS
----------------------------
                  0          1          2          3    
      0      56.970940   6.780828   0.002732   0.015254
      1       6.780828  43.788188   0.000735   0.004760
      2       0.002732   0.000735  15.414026   1.744114
      3       0.015254   0.004760   1.744114  16.636675

----------------------
LOEWDIN ATOMIC CHARGES
----------------------
   0 C :    0.110993
   1 N :   -0.111822
   2 C :    0.077172
   3 C :   -0.035105
   4 C :    0.073234
   5 C :   -0.065676
   6 N :    0.241136
   7 O :   -0.154122
   8 O :   -0.337909
   9 F :   -0.078226
  10 H :    0.086928
  11 H :    0.084527
  12 H :    0.099387
  13 C :   -0.358009
  14 H :    0.001130
  15 H :    0.001665
  16 H :    0.001372
  17 S :   -0.636675

-------------------------------
LOEWDIN REDUCED ORBITAL CHARGES
-------------------------------
  0 C s       :     2.743843  s :     2.743843
      pz      :     0.849391  p :     2.816055
      px      :     1.080586
      py      :     0.886078
      dz2     :     0.112520  d :     0.329110
      dxz     :     0.100696
      dyz     :     0.050377
      dx2y2   :     0.033885
      dxy     :     0.031631
  1 N s       :     3.151474  s :     3.151474
      pz      :     1.301261  p :     3.903510
      px      :     1.416992
      py      :     1.185258
      dz2     :     0.017384  d :     0.056838
      dxz     :     0.015720
      dyz     :     0.007793
      dx2y2   :     0.009543
      dxy     :     0.006397
  2 C s       :     2.786922  s :     2.786922
      pz      :     1.032874  p :     2.954068
      px      :     1.096674
      py      :     0.824521
      dz2     :     0.060312  d :     0.181838
      dxz     :     0.069043
      dyz     :     0.027980
      dx2y2   :     0.014015
      dxy     :     0.010489
  3 C s       :     2.781395  s :     2.781395
      pz      :     1.081439  p :     3.129351
      px      :     1.092391
      py      :     0.955521
      dz2     :     0.034112  d :     0.124359
      dxz     :     0.045072
      dyz     :     0.008019
      dx2y2   :     0.022219
      dxy     :     0.014938
  4 C s       :     2.779518  s :     2.779518
      pz      :     1.066004  p :     3.018943
      px      :     1.108813
      py      :     0.844125
      dz2     :     0.040915  d :     0.128305
      dxz     :     0.039156
      dyz     :     0.021249
      dx2y2   :     0.015063
      dxy     :     0.011921
  5 C s       :     2.758019  s :     2.758019
      pz      :     1.089089  p :     3.127333
      px      :     0.957742
      py      :     1.080503
      dz2     :     0.039909  d :     0.180323
      dxz     :     0.071786
      dyz     :     0.019823
      dx2y2   :     0.031422
      dxy     :     0.017384
  6 N s       :     3.051821  s :     3.051821
      pz      :     1.206095  p :     3.500681
      px      :     1.215289
      py      :     1.079296
      dz2     :     0.060437  d :     0.206362
      dxz     :     0.076190
      dyz     :     0.035695
      dx2y2   :     0.017517
      dxy     :     0.016522
  7 O s       :     3.581036  s :     3.581036
      pz      :     1.283798  p :     4.540776
      px      :     1.838801
      py      :     1.418177
      dz2     :     0.020435  d :     0.032309
      dxz     :     0.005157
      dyz     :     0.006528
      dx2y2   :     0.000119
      dxy     :     0.000071
  8 O s       :     3.666758  s :     3.666758
      pz      :     1.709683  p :     4.650665
      px      :     1.369841
      py      :     1.571140
      dz2     :     0.001546  d :     0.020487
      dxz     :     0.009265
      dyz     :     0.001174
      dx2y2   :     0.005712
      dxy     :     0.002790
  9 F s       :     3.714926  s :     3.714926
      pz      :     1.535273  p :     5.355931
      px      :     1.934379
      py      :     1.886279
      dz2     :     0.004765  d :     0.007369
      dxz     :     0.001184
      dyz     :     0.001375
      dx2y2   :     0.000037
      dxy     :     0.000009
 10 H s       :     0.842677  s :     0.842677
      pz      :     0.016679  p :     0.070395
      px      :     0.042292
      py      :     0.011424
 11 H s       :     0.843025  s :     0.843025
      pz      :     0.047851  p :     0.072448
      px      :     0.011208
      py      :     0.013390
 12 H s       :     0.827370  s :     0.827370
      pz      :     0.023105  p :     0.073244
      px      :     0.038734
      py      :     0.011405
 13 C s       :     2.858600  s :     2.858600
      pz      :     1.131787  p :     3.392552
      px      :     1.120493
      py      :     1.140271
      dz2     :     0.029176  d :     0.106857
      dxz     :     0.011597
      dyz     :     0.020993
      dx2y2   :     0.029284
      dxy     :     0.015808
 14 H s       :     0.927055  s :     0.927055
      pz      :     0.014064  p :     0.071815
      px      :     0.043127
      py      :     0.014624
 15 H s       :     0.926561  s :     0.926561
      pz      :     0.017436  p :     0.071774
      px      :     0.017921
      py      :     0.036417
 16 H s       :     0.926958  s :     0.926958
      pz      :     0.039967  p :     0.071670
      px      :     0.017007
      py      :     0.014696
 17 S s       :     5.610086  s :     5.610086
      pz      :     3.654440  p :    10.989383
      px      :     3.884897
      py      :     3.450047
      dz2     :     0.003628  d :     0.037206
      dxz     :     0.003242
      dyz     :     0.017117
      dx2y2   :     0.007763
      dxy     :     0.005457


                      *****************************
                      * MAYER POPULATION ANALYSIS *
                      *****************************

  NA   - Mulliken gross atomic population
  ZA   - Total nuclear charge
  QA   - Mulliken gross atomic charge
  VA   - Mayer's total valence
  BVA  - Mayer's bonded valence
  FA   - Mayer's free valence

  ATOM       NA         ZA         QA         VA         BVA        FA
  0 C      6.0865     6.0000    -0.0865     4.3488     4.3488    -0.0000
  1 N      7.2033     7.0000    -0.2033     2.7168     2.7168    -0.0000
  2 C      6.2897     6.0000    -0.2897     3.9638     3.9638    -0.0000
  3 C      6.2810     6.0000    -0.2810     4.3674     4.3674    -0.0000
  4 C      5.5236     6.0000     0.4764     3.9962     3.9962    -0.0000
  5 C      6.0795     6.0000    -0.0795     3.3215     3.3215    -0.0000
  6 N      7.0438     7.0000    -0.0438     3.9383     3.9383    -0.0000
  7 O      8.0605     8.0000    -0.0605     2.2143     2.2143     0.0000
  8 O      8.2365     8.0000    -0.2365     2.0363     2.0363    -0.0000
  9 F      9.1021     9.0000    -0.1021     0.9619     0.9619     0.0000
 10 H      0.7036     1.0000     0.2964     0.8707     0.8707    -0.0000
 11 H      0.7166     1.0000     0.2834     0.9006     0.9006    -0.0000
 12 H      0.6706     1.0000     0.3294     0.8353     0.8353     0.0000
 13 C      6.4289     6.0000    -0.4289     3.6011     3.6011    -0.0000
 14 H      0.8722     1.0000     0.1278     0.9413     0.9413    -0.0000
 15 H      0.8717     1.0000     0.1283     0.9436     0.9436    -0.0000
 16 H      0.8708     1.0000     0.1292     0.9361     0.9361    -0.0000
 17 S     16.9591    16.0000    -0.9591     0.6289     0.6289    -0.0000

  Mayer bond orders larger than 0.100000
B(  0-C ,  1-N ) :   1.2826 B(  0-C ,  2-C ) :   0.1846 B(  0-C ,  3-C ) :   0.1509 
B(  0-C ,  4-C ) :   0.2641 B(  0-C ,  5-C ) :   1.2384 B(  0-C ,  6-N ) :  -0.1647 
B(  0-C ,  9-F ) :   1.4360 B(  1-N ,  2-C ) :   1.1889 B(  1-N ,  5-C ) :   0.1910 
B(  2-C ,  3-C ) :   1.5815 B(  2-C , 10-H ) :   0.8838 B(  3-C ,  4-C ) :   1.4880 
B(  3-C ,  8-O ) :   0.1436 B(  3-C , 11-H ) :   0.8406 B(  4-C ,  5-C ) :   1.4952 
B(  4-C ,  6-N ) :  -0.1729 B(  4-C ,  8-O ) :   0.1794 B(  4-C ,  9-F ) :  -0.1253 
[...]
 289   0.0000       5.115785       139.2076 
 290   0.0000       5.213046       141.8542 
 291   0.0000       5.257022       143.0508 
 292   0.0000       5.391034       146.6975 
 293   0.0000       5.803332       157.9167 
 294   0.0000       6.265446       170.4914 
 295   0.0000       6.425351       174.8427 
 296   0.0000       6.554214       178.3492 
 297   0.0000       6.863975       186.7782 
 298   0.0000       7.985123       217.2862 
 299   0.0000      17.550737       477.5798 
 300   0.0000      17.554103       477.6714 
 301   0.0000      17.651683       480.3267 
 302   0.0000      23.715126       645.3214 
 303   0.0000      23.975296       652.4010 
 304   0.0000      24.031891       653.9410 
 305   0.0000      24.036130       654.0564 
 306   0.0000      24.188095       658.1915 
 307   0.0000      24.289471       660.9501 
 308   0.0000      35.405348       963.4285 
 309   0.0000      35.755147       972.9470 
 310   0.0000      49.911911      1358.1721 
 311   0.0000      49.992081      1360.3537 
 312   0.0000      66.807654      1817.9287 
 313   0.0000     188.975227      5142.2774 

--------------------
FRAGMENT INFORMATION
--------------------
Fragment  1:    0   1   2   3   4   5 
Fragment  2:    6   7   8   9  10  11  12 
Fragment  3:   13  14  15  16 
Fragment  4:   17 


                    ********************************
                    * MULLIKEN POPULATION ANALYSIS *
                    ********************************

-------------------------
MULLIKEN FRAGMENT CHARGES
-------------------------
 Fragment   0 :  -0.469138
 Fragment   1 :   0.471790
 Fragment   2 :  -0.044492
 Fragment   3 :  -0.958160
Sum of fragment charges:   -1.0000000

---------------------------------
MULLIKEN FRAGMENT OVERLAP CHARGES
---------------------------------
                  0          1          2          3    
      0      14.326649   0.403255  -0.000027  -0.004486
      1       0.403255  35.025953   0.000140   0.015171
      2      -0.000027   0.000140  11.668155  -0.654861
      3      -0.004486   0.015171  -0.654861  17.280248

-----------------------
MULLIKEN ATOMIC CHARGES
-----------------------
   0 C :   -0.006482
   1 N :   -0.193943
   2 C :   -0.244973
   3 C :   -0.364154
   4 C :    0.489887
   5 C :   -0.149472
   6 N :   -0.000732
   7 O :   -0.115200
   8 O :   -0.165104
   9 F :   -0.122446
  10 H :    0.284174
  11 H :    0.274127
  12 H :    0.316972
  13 C :   -0.430096
  14 H :    0.127741
  15 H :    0.128397
  16 H :    0.129467
  17 S :   -0.958160
Sum of atomic charges:   -1.0000000

--------------------------------
MULLIKEN REDUCED ORBITAL CHARGES
--------------------------------
  0 C s       :     3.231130  s :     3.231130
      pz      :     0.670612  p :     2.604064
      px      :     0.988173
      py      :     0.945279
      dz2     :     0.057992  d :     0.171288
      dxz     :     0.050618
      dyz     :     0.029545
      dx2y2   :     0.014877
      dxy     :     0.018257
  1 N s       :     3.594428  s :     3.594428
      pz      :     1.161395  p :     3.564408
      px      :     1.253762
      py      :     1.149251
      dz2     :     0.008927  d :     0.035108
      dxz     :     0.008736
      dyz     :     0.005415
      dx2y2   :     0.006093
      dxy     :     0.005937
  2 C s       :     3.300137  s :     3.300137
      pz      :     0.820713  p :     2.853953
      px      :     1.158586
      py      :     0.874655
      dz2     :     0.025685  d :     0.090882
      dxz     :     0.034332
      dyz     :     0.016262
      dx2y2   :     0.007848
      dxy     :     0.006756
  3 C s       :     3.271471  s :     3.271471
      pz      :     1.169370  p :     3.036062
      px      :     0.890124
      py      :     0.976569
      dz2     :     0.015844  d :     0.056621
      dxz     :     0.019187
      dyz     :     0.005669
      dx2y2   :     0.008207
      dxy     :     0.007715
  4 C s       :     2.422382  s :     2.422382
      pz      :     0.928741  p :     3.026109
      px      :     1.233571
      py      :     0.863797
      dz2     :     0.018675  d :     0.061623
      dxz     :     0.015104
      dyz     :     0.011743
      dx2y2   :     0.008801
      dxy     :     0.007301
  5 C s       :     3.319601  s :     3.319601
      pz      :     1.128681  p :     2.754580
      px      :     0.542919
      py      :     1.082980
      dz2     :     0.013298  d :     0.075290
      dxz     :     0.031804
      dyz     :     0.010787
      dx2y2   :     0.011045
      dxy     :     0.008358
  6 N s       :     3.499475  s :     3.499475
      pz      :     1.036608  p :     3.374976
      px      :     1.228154
      py      :     1.110214
      dz2     :     0.033709  d :     0.126281
      dxz     :     0.043198
      dyz     :     0.027164
      dx2y2   :     0.010019
      dxy     :     0.012192
  7 O s       :     3.796396  s :     3.796396
      pz      :     1.023074  p :     4.300320
      px      :     1.832729
      py      :     1.444516
      dz2     :     0.009771  d :     0.018485
      dxz     :     0.003395
      dyz     :     0.005165
      dx2y2   :     0.000095
      dxy     :     0.000059
  8 O s       :     3.802805  s :     3.802805
      pz      :     1.526000  p :     4.345745
      px      :     1.336263
      py      :     1.483482
      dz2     :     0.001883  d :     0.016555
      dxz     :     0.006616
      dyz     :     0.001682
      dx2y2   :     0.003398
      dxy     :     0.002977
  9 F s       :     3.918503  s :     3.918503
      pz      :     1.401079  p :     5.198730
      px      :     1.919057
      py      :     1.878593
      dz2     :     0.003036  d :     0.005214
      dxz     :     0.000969
      dyz     :     0.001170
      dx2y2   :     0.000029
      dxy     :     0.000010
 10 H s       :     0.692493  s :     0.692493
      pz      :     0.004566  p :     0.023333
      px      :     0.014370
      py      :     0.004397
 11 H s       :     0.699739  s :     0.699739
      pz      :     0.016319  p :     0.026134
      px      :     0.004415
      py      :     0.005401
 12 H s       :     0.654857  s :     0.654857
      pz      :     0.007323  p :     0.028171
      px      :     0.015876
      py      :     0.004972
 13 C s       :     3.289530  s :     3.289530
      pz      :     1.026270  p :     3.087921
      px      :     1.053491
      py      :     1.008161
      dz2     :     0.015011  d :     0.052645
      dxz     :     0.005924
      dyz     :     0.009355
      dx2y2   :     0.014268
      dxy     :     0.008088
 14 H s       :     0.849564  s :     0.849564
      pz      :     0.004669  p :     0.022696
      px      :     0.013283
      py      :     0.004744
 15 H s       :     0.848938  s :     0.848938
      pz      :     0.005659  p :     0.022664
      px      :     0.006035
      py      :     0.010971
 16 H s       :     0.847824  s :     0.847824
      pz      :     0.012171  p :     0.022709
      px      :     0.005661
      py      :     0.004877
 17 S s       :     5.998142  s :     5.998142
      pz      :     3.613208  p :    10.928626
      px      :     3.927110
      py      :     3.388309
      dz2     :     0.003302  d :     0.031392
      dxz     :     0.002870
      dyz     :     0.014294
      dx2y2   :     0.006322
      dxy     :     0.004603


                     *******************************
                     * LOEWDIN POPULATION ANALYSIS *
                     *******************************

------------------------
LOEWDIN FRAGMENT CHARGES
------------------------
 Fragment   0 :   0.043450
 Fragment   1 :  -0.053362
 Fragment   2 :  -0.353837
 Fragment   3 :  -0.636251

----------------------------
LOEWDIN FRAGMENT BOND ORDERS
----------------------------
                  0          1          2          3    
      0      57.189248   6.758779   0.002754   0.015528
      1       6.758779  44.072655   0.000787   0.004896
      2       0.002754   0.000787  15.414141   1.744055
      3       0.015528   0.004896   1.744055  16.636251

----------------------
LOEWDIN ATOMIC CHARGES
----------------------
   0 C :    0.081458
   1 N :   -0.073837
   2 C :    0.052543
   3 C :   -0.029119
   4 C :    0.073829
   5 C :   -0.061424
   6 N :    0.224051
   7 O :   -0.185791
   8 O :   -0.252513
   9 F :   -0.089122
  10 H :    0.084608
  11 H :    0.078714
  12 H :    0.086691
  13 C :   -0.357900
  14 H :    0.001176
  15 H :    0.001655
  16 H :    0.001232
  17 S :   -0.636251

-------------------------------
LOEWDIN REDUCED ORBITAL CHARGES
-------------------------------
  0 C s       :     2.729156  s :     2.729156
      pz      :     0.851766  p :     2.835991
      px      :     1.095247
      py      :     0.888978
      dz2     :     0.123495  d :     0.353396
      dxz     :     0.104238
      dyz     :     0.052384
      dx2y2   :     0.037680
      dxy     :     0.035599
  1 N s       :     3.098198  s :     3.098198
      pz      :     1.308105  p :     3.909292
      px      :     1.432401
      py      :     1.168786
      dz2     :     0.019342  d :     0.066347
      dxz     :     0.018734
      dyz     :     0.009496
      dx2y2   :     0.010719
      dxy     :     0.008055
  2 C s       :     2.769488  s :     2.769488
      pz      :     1.046102  p :     2.979270
      px      :     1.091143
      py      :     0.842025
      dz2     :     0.066109  d :     0.198699
      dxz     :     0.074821
      dyz     :     0.031520
      dx2y2   :     0.015073
      dxy     :     0.011177
  3 C s       :     2.763898  s :     2.763898
      pz      :     1.083735  p :     3.133843
      px      :     1.093356
      py      :     0.956751
      dz2     :     0.035646  d :     0.131378
      dxz     :     0.048179
      dyz     :     0.008916
      dx2y2   :     0.022366
      dxy     :     0.016271
  4 C s       :     2.757281  s :     2.757281
      pz      :     1.083810  p :     3.030004
      px      :     1.101147
      py      :     0.845046
      dz2     :     0.045378  d :     0.138886
      dxz     :     0.039300
      dyz     :     0.023777
      dx2y2   :     0.017584
      dxy     :     0.012846
  5 C s       :     2.748482  s :     2.748482
      pz      :     1.095572  p :     3.126422
      px      :     0.956990
      py      :     1.073860
      dz2     :     0.040164  d :     0.186521
      dxz     :     0.076353
      dyz     :     0.021151
      dx2y2   :     0.030992
      dxy     :     0.017860
  6 N s       :     3.018016  s :     3.018016
      pz      :     1.213360  p :     3.515734
      px      :     1.220973
      py      :     1.081401
      dz2     :     0.071885  d :     0.242198
      dxz     :     0.087049
      dyz     :     0.042522
      dx2y2   :     0.020957
      dxy     :     0.019786
  7 O s       :     3.577278  s :     3.577278
      pz      :     1.275284  p :     4.576488
      px      :     1.841768
      py      :     1.459436
      dz2     :     0.020530  d :     0.032025
      dxz     :     0.004962
      dyz     :     0.006359
      dx2y2   :     0.000111
      dxy     :     0.000063
  8 O s       :     3.597676  s :     3.597676
      pz      :     1.649743  p :     4.626158
      px      :     1.477647
      py      :     1.498768
      dz2     :     0.002756  d :     0.028679
      dxz     :     0.013387
      dyz     :     0.002233
      dx2y2   :     0.006477
      dxy     :     0.003825
  9 F s       :     3.713560  s :     3.713560
      pz      :     1.541052  p :     5.368321
      px      :     1.936955
      py      :     1.890313
      dz2     :     0.004677  d :     0.007241
      dxz     :     0.001169
      dyz     :     0.001346
      dx2y2   :     0.000039
      dxy     :     0.000010
 10 H s       :     0.846978  s :     0.846978
      pz      :     0.014221  p :     0.068414
      px      :     0.042351
      py      :     0.011842
 11 H s       :     0.845885  s :     0.845885
      pz      :     0.047487  p :     0.075400
      px      :     0.013224
      py      :     0.014689
 12 H s       :     0.832890  s :     0.832890
      pz      :     0.021278  p :     0.080419
      px      :     0.046113
      py      :     0.013028
 13 C s       :     2.858449  s :     2.858449
      pz      :     1.132373  p :     3.392579
      px      :     1.120434
      py      :     1.139772
      dz2     :     0.029708  d :     0.106871
      dxz     :     0.011368
      dyz     :     0.020781
      dx2y2   :     0.028951
      dxy     :     0.016064
 14 H s       :     0.927045  s :     0.927045
      pz      :     0.014049  p :     0.071779
      px      :     0.043093
      py      :     0.014638
 15 H s       :     0.926568  s :     0.926568
      pz      :     0.017120  p :     0.071777
      px      :     0.018116
      py      :     0.036541
 16 H s       :     0.926992  s :     0.926992
      pz      :     0.040068  p :     0.071776
      px      :     0.016860
      py      :     0.014848
 17 S s       :     5.610032  s :     5.610032
      pz      :     3.645293  p :    10.989020
      px      :     3.884617
      py      :     3.459110
      dz2     :     0.003712  d :     0.037199
      dxz     :     0.003340
      dyz     :     0.017262
      dx2y2   :     0.007512
      dxy     :     0.005373


                      *****************************
                      * MAYER POPULATION ANALYSIS *
                      *****************************

  NA   - Mulliken gross atomic population
  ZA   - Total nuclear charge
  QA   - Mulliken gross atomic charge
  VA   - Mayer's total valence
  BVA  - Mayer's bonded valence
  FA   - Mayer's free valence

  ATOM       NA         ZA         QA         VA         BVA        FA
  0 C      6.0065     6.0000    -0.0065     4.2639     4.2639     0.0000
  1 N      7.1939     7.0000    -0.1939     2.7492     2.7492    -0.0000
  2 C      6.2450     6.0000    -0.2450     3.9954     3.9954    -0.0000
  3 C      6.3642     6.0000    -0.3642     4.5297     4.5297     0.0000
  4 C      5.5101     6.0000     0.4899     4.0138     4.0138     0.0000
  5 C      6.1495     6.0000    -0.1495     3.4782     3.4782     0.0000
  6 N      7.0007     7.0000    -0.0007     3.9622     3.9622     0.0000
  7 O      8.1152     8.0000    -0.1152     2.1907     2.1907     0.0000
  8 O      8.1651     8.0000    -0.1651     2.1807     2.1807    -0.0000
  9 F      9.1224     9.0000    -0.1224     0.9238     0.9238    -0.0000
 10 H      0.7158     1.0000     0.2842     0.8720     0.8720    -0.0000
 11 H      0.7259     1.0000     0.2741     0.9105     0.9105     0.0000
 12 H      0.6830     1.0000     0.3170     0.8430     0.8430     0.0000
 13 C      6.4301     6.0000    -0.4301     3.5992     3.5992     0.0000
 14 H      0.8723     1.0000     0.1277     0.9412     0.9412     0.0000
 15 H      0.8716     1.0000     0.1284     0.9435     0.9435     0.0000
 16 H      0.8705     1.0000     0.1295     0.9357     0.9357     0.0000
 17 S     16.9582    16.0000    -0.9582     0.6263     0.6263    -0.0000

  Mayer bond orders larger than 0.100000
B(  0-C ,  1-N ) :   1.2907 B(  0-C ,  2-C ) :   0.1753 B(  0-C ,  3-C ) :   0.1888 
B(  0-C ,  4-C ) :   0.2490 B(  0-C ,  5-C ) :   1.2306 B(  0-C ,  6-N ) :  -0.1784 
B(  0-C ,  8-O ) :  -0.1111 B(  0-C ,  9-F ) :   1.3805 B(  1-N ,  2-C ) :   1.1592 
B(  1-N ,  5-C ) :   0.2261 B(  2-C ,  3-C ) :   1.6507 B(  2-C , 10-H ) :   0.8917 
B(  3-C ,  4-C ) :   1.4191 B(  3-C ,  5-C ) :   0.1272 B(  3-C ,  8-O ) :   0.1774 
B(  3-C , 11-H ) :   0.8339 B(  4-C ,  5-C ) :   1.5522 B(  4-C ,  6-N ) :  -0.1174 
B(  4-C ,  8-O ) :   0.2432 B(  4-C ,  9-F ) :  -0.1430 B(  4-C , 12-H ) :   0.7326 
B(  5-C ,  6-N ) :   0.7148 B(  5-C ,  8-O ) :  -0.2070 B(  5-C ,  9-F ) :  -0.3501 
B(  5-C , 12-H ) :   0.1326 B(  6-N ,  7-O ) :   1.8289 B(  6-N ,  8-O ) :   1.7834 
B(  7-O ,  8-O ) :   0.2876 B( 13-C , 14-H ) :   0.9846 B( 13-C , 15-H ) :   0.9831 
B( 13-C , 16-H ) :   0.9821 B( 13-C , 17-S ) :   0.6502 

-------
TIMINGS
-------

Total SCF time: 0 days 0 hours 0 min 21 sec 

Total time                  ....      21.528 sec
Sum of individual times     ....      20.527 sec  ( 95.4%)

Fock matrix formation       ....      18.084 sec  ( 84.0%)
  Split-RI-J                ....       1.089 sec  (  6.0% of F)
  Chain of spheres X        ....      12.669 sec  ( 70.1% of F)
  XC integration            ....       2.439 sec  ( 13.5% of F)
    Basis function eval.    ....       0.206 sec  (  8.4% of XC)
    Density eval.           ....       0.358 sec  ( 14.7% of XC)
    XC-Functional eval.     ....       0.101 sec  (  4.2% of XC)
    XC-Potential eval.      ....       0.155 sec  (  6.4% of XC)
Diagonalization             ....       0.035 sec  (  0.2%)
Density matrix formation    ....       0.013 sec  (  0.1%)
Population analysis         ....       0.070 sec  (  0.3%)
Initial guess               ....       0.045 sec  (  0.2%)
Orbital Transformation      ....       0.000 sec  (  0.0%)
Orbital Orthonormalization  ....       0.032 sec  (  0.2%)
DIIS solution               ....       0.014 sec  (  0.1%)
SOSCF solution              ....       0.304 sec  (  1.4%)
Grid generation             ....       1.962 sec  (  9.1%)

Maximum memory used throughout the entire SCF-calculation: 69.0 MB

-------------------------   --------------------
FINAL SINGLE POINT ENERGY      -990.257157498674
-------------------------   --------------------

                                *** OPTIMIZATION RUN DONE ***

                            ***************************************
                            *     ORCA property calculations      *
                            ***************************************

                                    ---------------------
                                    Active property flags
                                    ---------------------
   (+) Dipole Moment


------------------------------------------------------------------------------
                       ORCA ELECTRIC PROPERTIES CALCULATION
------------------------------------------------------------------------------

Dipole Moment Calculation                       ... on
Quadrupole Moment Calculation                   ... off
Polarizability Calculation                      ... off
GBWName                                         ... structure_opt.gbw
Electron density                                ... structure_opt.scfp
The origin for moment calculation is the CENTER OF MASS  = (-2.157659,  2.983895  5.514056)

-------------
DIPOLE MOMENT
-------------
                                X             Y             Z
Electronic contribution:      3.24197     -19.10966     -13.46808
Nuclear contribution   :     -0.80633      12.07168      14.28341
                        -----------------------------------------
Total Dipole Moment    :      2.43564      -7.03798       0.81532
                        -----------------------------------------
Magnitude (a.u.)       :      7.49201
Magnitude (Debye)      :     19.04318



--------------------
Rotational spectrum 
--------------------
 
Rotational constants in cm-1:     0.030409     0.010659     0.009395 
Rotational constants in MHz :   911.650662   319.549043   281.668704 

 Dipole components along the rotational axes: 
x,y,z [a.u.] :     6.617107    -2.599303    -2.363840 
x,y,z [Debye]:    16.819350    -6.606904    -6.008405 

 

Timings for individual modules:

Sum of individual times         ...      832.108 sec (=  13.868 min)
GTO integral calculation        ...       47.860 sec (=   0.798 min)   5.8 %
SCF iterations                  ...      645.060 sec (=  10.751 min)  77.5 %
SCF Gradient evaluation         ...      138.088 sec (=   2.301 min)  16.6 %
Geometry relaxation             ...        1.100 sec (=   0.018 min)   0.1 %
                             ****ORCA TERMINATED NORMALLY****
TOTAL RUN TIME: 0 days 0 hours 14 minutes 42 seconds 502 msec
