
                                 *****************
                                 * O   R   C   A *
                                 *****************

                                            #,                                       
                                            ###                                      
                                            ####                                     
                                            #####                                    
                                            ######                                   
                                           ########,                                 
                                     ,,################,,,,,                         
                               ,,#################################,,                 
                          ,,##########################################,,             
                       ,#########################################, ''#####,          
                    ,#############################################,,   '####,        
                  ,##################################################,,,,####,       
                ,###########''''           ''''###############################       
              ,#####''   ,,,,##########,,,,          '''####'''          '####       
            ,##' ,,,,###########################,,,                        '##       
           ' ,,###''''                  '''############,,,                           
         ,,##''                                '''############,,,,        ,,,,,,###''
      ,#''                                            '''#######################'''  
     '                                                          ''''####''''         
             ,#######,   #######,   ,#######,      ##                                
            ,#'     '#,  ##    ##  ,#'     '#,    #''#        ######   ,####,        
            ##       ##  ##   ,#'  ##            #'  '#       #        #'  '#        
            ##       ##  #######   ##           ,######,      #####,   #    #        
            '#,     ,#'  ##    ##  '#,     ,#' ,#      #,         ##   #,  ,#        
             '#######'   ##     ##  '#######'  #'      '#     #####' # '####'        



                  #######################################################
                  #                        -***-                        #
                  #          Department of theory and spectroscopy      #
                  #    Directorship and core code : Frank Neese         #
                  #        Max Planck Institute fuer Kohlenforschung    #
                  #                Kaiser Wilhelm Platz 1               #
                  #                 D-45470 Muelheim/Ruhr               #
                  #                      Germany                        #
                  #                                                     #
                  #                  All rights reserved                #
                  #                        -***-                        #
                  #######################################################


                         Program Version 5.0.4 -  RELEASE  -


 With contributions from (in alphabetic order):
   Daniel Aravena         : Magnetic Suceptibility
   Michael Atanasov       : Ab Initio Ligand Field Theory (pilot matlab implementation)
   Alexander A. Auer      : GIAO ZORA, VPT2 properties, NMR spectrum
   Ute Becker             : Parallelization
   Giovanni Bistoni       : ED, misc. LED, open-shell LED, HFLD
   Martin Brehm           : Molecular dynamics
   Dmytro Bykov           : SCF Hessian
   Vijay G. Chilkuri      : MRCI spin determinant printing, contributions to CSF-ICE
   Dipayan Datta          : RHF DLPNO-CCSD density
   Achintya Kumar Dutta   : EOM-CC, STEOM-CC
   Dmitry Ganyushin       : Spin-Orbit,Spin-Spin,Magnetic field MRCI
   Miquel Garcia          : C-PCM and meta-GGA Hessian, CC/C-PCM, Gaussian charge scheme
   Yang Guo               : DLPNO-NEVPT2, F12-NEVPT2, CIM, IAO-localization
   Andreas Hansen         : Spin unrestricted coupled pair/coupled cluster methods
   Benjamin Helmich-Paris : MC-RPA, TRAH-SCF, COSX integrals
   Lee Huntington         : MR-EOM, pCC
   Robert Izsak           : Overlap fitted RIJCOSX, COSX-SCS-MP3, EOM
   Marcus Kettner         : VPT2
   Christian Kollmar      : KDIIS, OOCD, Brueckner-CCSD(T), CCSD density, CASPT2, CASPT2-K
   Simone Kossmann        : Meta GGA functionals, TD-DFT gradient, OOMP2, MP2 Hessian
   Martin Krupicka        : Initial AUTO-CI
   Lucas Lang             : DCDCAS
   Marvin Lechner         : AUTO-CI (C++ implementation), FIC-MRCC
   Dagmar Lenk            : GEPOL surface, SMD
   Dimitrios Liakos       : Extrapolation schemes; Compound Job, initial MDCI parallelization
   Dimitrios Manganas     : Further ROCIS development; embedding schemes
   Dimitrios Pantazis     : SARC Basis sets
   Anastasios Papadopoulos: AUTO-CI, single reference methods and gradients
   Taras Petrenko         : DFT Hessian,TD-DFT gradient, ASA, ECA, R-Raman, ABS, FL, XAS/XES, NRVS
   Peter Pinski           : DLPNO-MP2, DLPNO-MP2 Gradient
   Christoph Reimann      : Effective Core Potentials
   Marius Retegan         : Local ZFS, SOC
   Christoph Riplinger    : Optimizer, TS searches, QM/MM, DLPNO-CCSD(T), (RO)-DLPNO pert. Triples
   Tobias Risthaus        : Range-separated hybrids, TD-DFT gradient, RPA, STAB
   Michael Roemelt        : Original ROCIS implementation
   Masaaki Saitow         : Open-shell DLPNO-CCSD energy and density
   Barbara Sandhoefer     : DKH picture change effects
   Avijit Sen             : IP-ROCIS
   Kantharuban Sivalingam : CASSCF convergence, NEVPT2, FIC-MRCI
   Bernardo de Souza      : ESD, SOC TD-DFT
   Georgi Stoychev        : AutoAux, RI-MP2 NMR, DLPNO-MP2 response
   Willem Van den Heuvel  : Paramagnetic NMR
   Boris Wezisla          : Elementary symmetry handling
   Frank Wennmohs         : Technical directorship


 We gratefully acknowledge several colleagues who have allowed us to
 interface, adapt or use parts of their codes:
   Stefan Grimme, W. Hujo, H. Kruse, P. Pracht,  : VdW corrections, initial TS optimization,
                  C. Bannwarth, S. Ehlert          DFT functionals, gCP, sTDA/sTD-DF
   Ed Valeev, F. Pavosevic, A. Kumar             : LibInt (2-el integral package), F12 methods
   Garnet Chan, S. Sharma, J. Yang, R. Olivares  : DMRG
   Ulf Ekstrom                                   : XCFun DFT Library
   Mihaly Kallay                                 : mrcc  (arbitrary order and MRCC methods)
   Jiri Pittner, Ondrej Demel                    : Mk-CCSD
   Frank Weinhold                                : gennbo (NPA and NBO analysis)
   Christopher J. Cramer and Donald G. Truhlar   : smd solvation model
   Lars Goerigk                                  : TD-DFT with DH, B97 family of functionals
   V. Asgeirsson, H. Jonsson                     : NEB implementation
   FAccTs GmbH                                   : IRC, NEB, NEB-TS, DLPNO-Multilevel, CI-OPT
                                                   MM, QMMM, 2- and 3-layer-ONIOM, Crystal-QMMM,
                                                   LR-CPCM, SF, NACMEs, symmetry and pop. for TD-DFT,
                                                   nearIR, NL-DFT gradient (VV10), updates on ESD,
                                                   ML-optimized integration grids
   S Lehtola, MJT Oliveira, MAL Marques          : LibXC Library
   Liviu Ungur et al                             : ANISO software


 Your calculation uses the libint2 library for the computation of 2-el integrals
 For citations please refer to: http://libint.valeyev.net

 Your ORCA version has been built with support for libXC version: 5.1.0
 For citations please refer to: https://tddft.org/programs/libxc/

 This ORCA versions uses:
   CBLAS   interface :  Fast vector & matrix operations
   LAPACKE interface :  Fast linear algebra routines
   SCALAPACK package :  Parallel linear algebra routines
   Shared memory     :  Shared parallel matrices
   BLAS/LAPACK       :  OpenBLAS 0.3.15  USE64BITINT DYNAMIC_ARCH NO_AFFINITY SkylakeX SINGLE_THREADED
        Core in use  :  SkylakeX
   Copyright (c) 2011-2014, The OpenBLAS Project




***************************************
The coordinates will be read from file: reactants.xyz
***************************************


Your calculation utilizes the SMD solvation module
Please cite in your paper:
A.V. Marenich, C.J. Cramer, D.G. Truhlar J. Phys. Chem. B, 113, (2009), 6378 

XCFun DFT library Copyright 2009-2010 Ulf Ekstrom and contributors.
See http://admol.org/xcfun for more information.
This is free software; see the source code for copying conditions.
There is ABSOLUTELY NO WARRANTY; not even for MERCHANTABILITY or FITNESS FOR A PARTICULAR PURPOSE.
For details see the documentation.
Scientific users of this library should cite U. Ekstrom, L. Visscher, R. Bast, A. J. Thorvaldsen and K. Ruud;
J.Chem.Theor.Comp. 2010, DOI: 10.1021/ct100117s
XCFun Version 0.99 

================================================================================

----- Orbital basis set information -----
Your calculation utilizes the basis: 6-311++G**
   H, Li - Ne  : R. Krishnan, J. S. Binkley, R. Seeger and J. A. Pople, J. Chem. Phys. 72, 650 (1980).
   Na - Ar     : A. D. McLean and G. S. Chandler J. Chem. Phys. 72, 5639, (1980).
   K  - Ca     : J.-P. Blaudeau, M. P. McGrath, L. A. Curtiss and L. Radom, J. Chem. Phys. 107, 5016 (1997).
   Ga - Kr     : L. A. Curtiss, M. P. McGrath, J.-P. Blandeau, N. E. Davis, R. C. Binning and L. Radom, J. Chem. Phys. 103, 6104 (1995).
   Pol./Diff.
   H, Li - Cl  : T. Clark, J. Chandrasekhar and P. v. R. Schleyer, J. Comp. Chem. 4, 294 (1983).
   H - Ne      : M. J. Frisch, J. A. Pople and J. S. Binkley, J. Chem. Phys. 80, 3265 (1984).

----- AuxJ basis set information -----
Your calculation utilizes the auxiliary basis: def2/J
   F. Weigend, Phys. Chem. Chem. Phys. 8, 1057 (2006).

================================================================================
                                        WARNINGS
                       Please study these warnings very carefully!
================================================================================


WARNING: Geometry Optimization
  ===> : Switching off AutoStart
         For restart on a previous wavefunction, please use MOREAD

INFO   : the flag for use of the SHARK integral package has been found!

================================================================================
                                       INPUT FILE
================================================================================
NAME = structure_opt.inp
|  1> !wb97x 6-311++G** OPT CPCM(WATER)
|  2> %maxcore  3500
|  3> %pal
|  4> nprocs 24
|  5> end
|  6> %cpcm
|  7> smd true
|  8> SMDsolvent "water"
|  9> end
| 10> %geom
| 11> ConstrainFragments {1} end
| 12> ConstrainFragments {4} end
| 13> ConnectFragments
| 14> { 1 2 C 5 7 }
| 15> { 1 2 C 0 9 }
| 16> { 2 3 C 13 5 }
| 17> { 3 4 C 13 17 }
| 18> end
| 19> end
| 20> * XYZfile -1 1 reactants.xyz
| 21> %geom
| 22> Fragments
| 23> 1 {0:5} end
| 24> 2 {6:12} end
| 25> 3 {13:16} end
| 26> 4 {17} end
| 27> end
| 28> end
| 29> 
| 30>                          ****END OF INPUT****
================================================================================

                       *****************************
                       * Geometry Optimization Run *
                       *****************************

Geometry optimization settings:
Update method            Update   .... BFGS
Choice of coordinates    CoordSys .... Z-matrix Internals
Initial Hessian          InHess   .... Almoef's Model

Convergence Tolerances:
Energy Change            TolE     ....  5.0000e-06 Eh
Max. Gradient            TolMAXG  ....  3.0000e-04 Eh/bohr
RMS Gradient             TolRMSG  ....  1.0000e-04 Eh/bohr
Max. Displacement        TolMAXD  ....  4.0000e-03 bohr
RMS Displacement         TolRMSD  ....  2.0000e-03 bohr
Strict Convergence                ....  False
------------------------------------------------------------------------------
                        ORCA OPTIMIZATION COORDINATE SETUP
------------------------------------------------------------------------------

The optimization will be done in new redundant internal coordinates
Making redundant internal coordinates   ...  (new redundants) done
Evaluating the initial hessian          ...  (Almloef) done
Evaluating the coordinates              ...  done
Calculating the B-matrix                .... done
Calculating the G-matrix                .... done
Diagonalizing the G-matrix              .... done
Imposing constraints:
 Iter   0:  RMS(Cart)=    0.0000000000 RMS(Int)=    0.0000000000
CONVERGED
Small eigenvalue found = 1.166e-02
Small eigenvalue found = 1.638e-02
The first mode is                       ....   66
The number of degrees of freedom        ....   48
Storing new coordinates                 .... done

    -----------------------------------------------------------------
                    Redundant Internal Coordinates


    -----------------------------------------------------------------
         Definition                    Initial Value    Approx d2E/dq
    -----------------------------------------------------------------
      1. B(N   1,C   0)                  1.3611         0.622347   
      2. B(C   2,N   1)                  1.3582         0.628875   
      3. B(C   3,C   2)                  1.3949         0.613658   
      4. B(C   4,C   3)                  1.3934         0.616971   
      5. B(C   5,C   0)                  1.4122         0.575774   
      6. B(C   5,C   4)                  1.4061         0.588917   
      7. B(O   7,C   5)                  2.3435         0.016853 C 
      8. B(O   7,N   6)                  1.2480         0.844503   
      9. B(O   8,N   6)                  1.3769         0.525866   
     10. B(F   9,C   0)                  1.3500         0.602260 C 
     11. B(F   9,N   6)                  2.8678         0.002044   
     12. B(F   9,O   7)                  2.5821         0.005837   
     13. B(H  11,H  10)                  2.4818         0.000415   
     14. B(H  12,O   8)                  2.5152         0.001717   
     15. B(H  12,H  11)                  2.4663         0.000439   
     16. B(H  12,N   6)                  2.7029         0.000861   
     17. B(C  13,O   8)                  7.4332         0.000000 C 
     18. B(H  14,C  13)                  1.0937         0.355262   
     19. B(H  15,C  13)                  1.0923         0.357052   
     20. B(H  16,C  13)                  1.0936         0.355402   
     21. B(S  17,C  13)                  1.8031         0.369292 C 
     22. A(N   1,C   0,C   5)          120.1571         0.425830   
     23. A(N   1,C   0,F   9)          118.6704         0.424592 C 
     24. A(C   5,C   0,F   9)          121.1725         0.421471 C 
     25. A(C   0,N   1,C   2)          121.9524         0.429796   
     26. A(N   1,C   2,C   3)          120.0262         0.431531   
     27. A(C   2,C   3,C   4)          119.3498         0.432882   
     28. A(C   3,C   4,C   5)          120.4718         0.429694   
     29. A(C   0,C   5,O   7)           94.5313         0.237820 C 
     30. A(C   0,C   5,C   4)          118.0425         0.424407   
     31. A(C   4,C   5,O   7)          147.4261         0.238582 C 
     32. A(F   9,N   6,H  12)          110.0144         0.106848   
     33. A(O   8,N   6,H  12)           67.2752         0.152046   
     34. A(O   7,N   6,H  12)          174.2234         0.159181   
     35. A(O   7,N   6,O   8)          118.5014         0.433822   
     36. A(O   7,N   6,F   9)           64.2090         0.186619   
     37. A(N   6,O   7,F   9)           89.9947         0.212791   
     38. A(C   5,O   7,N   6)           31.7456         0.248611 C 
     39. A(C   5,O   7,F   9)           58.2491         0.140475 C 
     40. A(N   6,O   8,H  12)           82.3972         0.162696   
     41. A(H  12,O   8,C  13)           90.4929         0.089495 C 
     42. A(N   6,O   8,C  13)           91.7255         0.091082 C 
     43. A(C   0,F   9,O   7)           86.0471         0.203997 C 
     44. A(N   6,F   9,O   7)           25.7962         0.120482   
     45. A(C   0,F   9,N   6)           60.2509         0.179684 C 
     46. A(H  10,H  11,H  12)          119.7063         0.095112   
     47. A(N   6,H  12,O   8)           30.3275         0.103999   
     48. A(N   6,H  12,H  11)          126.7169         0.097913   
     49. A(O   8,H  12,H  11)          157.0445         0.099419   
     50. A(H  14,C  13,H  15)          109.0322         0.289836   
     51. A(H  14,C  13,H  16)          108.9493         0.289625   
     52. A(H  15,C  13,H  16)          109.0862         0.289854   
     53. A(O   8,C  13,H  14)           86.8949         0.090676 C 
     54. A(O   8,C  13,S  17)           30.7375         0.091092   
     55. A(O   8,C  13,H  15)          138.9993         0.090678 C 
     56. A(O   8,C  13,H  16)          100.1868         0.090676 C 
     57. A(H  14,C  13,S  17)          109.9466         0.339415 C 
     58. A(H  15,C  13,S  17)          109.9661         0.339700 C 
     59. A(H  16,C  13,S  17)          109.8360         0.339437 C 
     60. D(C   2,N   1,C   0,C   5)     -0.1041         0.028432   
     61. D(C   2,N   1,C   0,F   9)    179.9112         0.028432 C 
     62. D(C   3,C   2,N   1,C   0)      0.1066         0.025783   
     63. D(C   4,C   3,C   2,N   1)     -0.0956         0.020965   
     64. D(C   5,C   4,C   3,C   2)      0.0854         0.021202   
     65. D(O   7,C   5,C   0,F   9)     -0.0223         0.022761 C 
     66. D(O   7,C   5,C   4,C   3)   -179.9036         0.021656 C 
     67. D(O   7,C   5,C   0,N   1)    179.9933         0.022761 C 
     68. D(C   4,C   5,C   0,N   1)      0.0896         0.022761   
     69. D(C   0,C   5,C   4,C   3)     -0.0818         0.021656   
     70. D(C   4,C   5,C   0,F   9)   -179.9260         0.022761 C 
     71. D(N   6,O   7,C   5,C   4)     -0.1099         0.001517 C 
     72. D(N   6,O   7,C   5,C   0)   -179.9521         0.001517 C 
     73. D(F   9,O   7,C   5,C   4)    179.8539         0.001517 C 
     74. D(F   9,O   7,C   5,C   0)      0.0117         0.001517 C 
     75. D(F   9,O   7,N   6,O   8)    179.9932         0.079747   
     76. D(F   9,O   7,N   6,H  12)      0.1568         0.079747   
     77. D(C   5,O   7,N   6,O   8)   -179.9761         0.079747 C 
     78. D(C   5,O   7,N   6,H  12)      0.1876         0.079747 C 
     79. D(C   5,O   7,N   6,F   9)      0.0308         0.079747 C 
     80. D(C  13,O   8,N   6,O   7)    -89.7150         0.027866 C 
     81. D(C  13,O   8,N   6,H  12)     90.2671         0.027866 C 
     82. D(H  12,O   8,N   6,O   7)   -179.9821         0.027866   
     83. D(N   6,F   9,O   7,C   5)     -0.0190         0.001503 C 
     84. D(N   6,F   9,C   0,N   1)   -179.9918         0.032536 C 
     85. D(N   6,F   9,C   0,C   5)      0.0236         0.032536 C 
     86. D(O   7,F   9,N   6,H  12)   -179.9832         0.001500   
     87. D(C   0,F   9,N   6,O   7)   -179.9922         0.001500 C 
     88. D(C   0,F   9,N   6,H  12)      0.0246         0.001500 C 
     89. D(O   7,F   9,C   0,C   5)      0.0202         0.032536 C 
     90. D(O   7,F   9,C   0,N   1)   -179.9952         0.032536 C 
     91. D(C   0,F   9,O   7,N   6)      0.0068         0.001503 C 
     92. D(C   0,F   9,O   7,C   5)     -0.0123         0.001503 C 
     93. D(O   7,F   9,O   8,H  12)   -179.9897         0.001500   
     94. D(O   7,F   9,O   8,C  13)    -89.7773         0.001500 C 
     95. D(C   0,F   9,O   8,H  12)      0.0232         0.001500 C 
     96. D(C   0,F   9,O   8,C  13)     90.2356         0.001500   
     97. D(O   8,H  12,H  11,H  10)      0.0710         0.001502   
     98. D(O   8,H  12,N   6,F   9)    179.9943         0.001501   
     99. D(H  11,H  12,N   6,O   7)     -0.1748         0.001501   
    100. D(H  11,H  12,N   6,O   8)    179.9811         0.001501   
    101. D(H  11,H  12,N   6,F   9)     -0.0245         0.001501   
    102. D(N   6,H  12,O   8,C  13)    -91.6750         0.001502 C 
    103. D(H  11,H  12,O   8,N   6)     -0.0388         0.001502   
    104. D(H  11,H  12,O   8,C  13)    -91.7138         0.001502 C 
    105. D(O   8,H  12,N   6,O   7)    179.8441         0.001501   
    106. D(N   6,H  12,H  11,H  10)      0.0466         0.001502   
    107. D(S  17,C  13,O   8,H  12)     85.7231         0.001500   
    108. D(H  14,C  13,O   8,H  12)   -134.8419         0.001500 C 
    109. D(H  15,C  13,O   8,N   6)     26.9403         0.001500 C 
    110. D(H  15,C  13,O   8,H  12)    109.3488         0.001500 C 
    111. D(H  16,C  13,O   8,N   6)   -108.5469         0.001500 C 
    112. D(H  16,C  13,O   8,H  12)    -26.1384         0.001500 C 
    113. D(H  14,C  13,O   8,N   6)    142.7497         0.001500 C 
    114. D(S  17,C  13,O   8,N   6)      3.3146         0.001500   
    -----------------------------------------------------------------

Number of atoms                         .... 18
Number of degrees of freedom            .... 114

         *************************************************************
         *                GEOMETRY OPTIMIZATION CYCLE   1            *
         *************************************************************
---------------------------------
CARTESIAN COORDINATES (ANGSTROEM)
---------------------------------
  C      0.000000    0.000000    1.820000
  N      1.178000   -0.196000    2.473000
  C      1.255000   -0.207000    3.829000
  C      0.105000   -0.016000    4.595000
  C     -1.116000    0.187000    3.955000
  C     -1.192000    0.198000    2.551000
  N     -2.456000    0.409000    1.893000
  O     -2.541000    0.423000    0.648000
  O     -3.602000    0.600000    2.632000
  F      0.000000    0.000000    0.470000
  H      2.209000   -0.366000    4.313000
  H      0.163000   -0.026000    5.676000
  H     -2.005000    0.335000    4.557000
  C     -2.587000    7.963000    2.720000
  H     -3.673000    8.054000    2.628000
  H     -2.112000    8.737000    2.113000
  H     -2.306000    8.107000    3.767000
  S     -2.057000    6.332000    2.163000

----------------------------
CARTESIAN COORDINATES (A.U.)
----------------------------
  NO LB      ZA    FRAG     MASS         X           Y           Z
   0 C     6.0000    1    12.011    0.000000    0.000000    3.439302
   1 N     7.0000    1    14.007    2.226097   -0.370386    4.673293
   2 C     6.0000    1    12.011    2.371606   -0.391173    7.235761
   3 C     6.0000    1    12.011    0.198421   -0.030236    8.683292
   4 C     6.0000    1    12.011   -2.108934    0.353379    7.473867
   5 C     6.0000    1    12.011   -2.252554    0.374166    4.820691
   6 N     7.0000    2    14.007   -4.641167    0.772898    3.577252
   7 O     8.0000    2    15.999   -4.801794    0.799354    1.224543
   8 O     8.0000    2    15.999   -6.806794    1.133836    4.973759
   9 F     9.0000    2    18.998    0.000000    0.000000    0.888171
  10 H     1.0000    2     1.008    4.174405   -0.691640    8.150389
  11 H     1.0000    2     1.008    0.308025   -0.049133   10.726086
  12 H     1.0000    2     1.008   -3.788901    0.633058    8.611482
  13 C     6.0000    3    12.011   -4.888722   15.047889    5.140055
  14 H     1.0000    3     1.008   -6.940964   15.219854    4.966200
  15 H     1.0000    3     1.008   -3.991102   16.510537    3.992991
  16 H     1.0000    3     1.008   -4.357708   15.320010    7.118598
  17 S    16.0000    4    32.060   -3.887167   11.965746    4.087478

----------------------------------------------
CARTESIAN COORDINATES OF FRAGMENTS (ANGSTROEM)
----------------------------------------------

 FRAGMENT 1 
  C     0.000000    0.000000    1.820000
  N     1.178000   -0.196000    2.473000
  C     1.255000   -0.207000    3.829000
  C     0.105000   -0.016000    4.595000
  C    -1.116000    0.187000    3.955000
  C    -1.192000    0.198000    2.551000

 FRAGMENT 2 
  N    -2.456000    0.409000    1.893000
  O    -2.541000    0.423000    0.648000
  O    -3.602000    0.600000    2.632000
  F     0.000000    0.000000    0.470000
  H     2.209000   -0.366000    4.313000
  H     0.163000   -0.026000    5.676000
  H    -2.005000    0.335000    4.557000

 FRAGMENT 3 
  C    -2.587000    7.963000    2.720000
  H    -3.673000    8.054000    2.628000
  H    -2.112000    8.737000    2.113000
  H    -2.306000    8.107000    3.767000

 FRAGMENT 4 
  S    -2.057000    6.332000    2.163000

--------------------------------
INTERNAL COORDINATES (ANGSTROEM)
--------------------------------
 C      0   0   0     0.000000000000     0.00000000     0.00000000
 N      1   0   0     1.361069065110     0.00000000     0.00000000
 C      2   1   0     1.358228993948   121.95243626     0.00000000
 C      3   2   1     1.394896770374   120.02620694     0.10655554
 C      4   3   2     1.393431017309   119.34983770   359.90435571
 C      5   4   3     1.406098502951   120.47178172     0.08537773
 N      6   5   4     1.440548853736   120.30882193   180.03842131
 O      7   6   5     1.247976762604   121.13704526   179.93147861
 O      7   6   5     1.376923382037   120.36156660   359.90709941
 F      1   2   3     1.350000000000   118.67037638   179.91115691
 H      3   2   1     1.081504969938   119.86701156   179.98746005
 H      4   3   2     1.082601034546   120.19197482   179.89186186
 H      5   4   3     1.083803026384   118.91636700   180.02085854
 C      9   7   6     7.433151283271    91.72545221    90.30873554
 H     14   9   7     1.093682312191    86.89492541   142.74968295
 H     14   9   7     1.092314057403   138.99925362    26.94033489
 H     14   9   7     1.093574871694   100.18677215   251.45309747
 S     14   9   7     1.803138929756    30.73753133     3.31458701

---------------------------
INTERNAL COORDINATES (A.U.)
---------------------------
 C      0   0   0     0.000000000000     0.00000000     0.00000000
 N      1   0   0     2.572047782411     0.00000000     0.00000000
 C      2   1   0     2.566680825712   121.95243626     0.00000000
 C      3   2   1     2.635972881098   120.02620694     0.10655554
 C      4   3   2     2.633203009226   119.34983770   359.90435571
 C      5   4   3     2.657141087893   120.47178172     0.08537773
 N      6   5   4     2.722242816095   120.30882193   180.03842131
 O      7   6   5     2.358334302820   121.13704526   179.93147861
 O      7   6   5     2.602008099442   120.36156660   359.90709941
 F      1   2   3     2.551130280794   118.67037638   179.91115691
 H      3   2   1     2.043748205657   119.86701156   179.98746005
 H      4   3   2     2.045819467592   120.19197482   179.89186186
 H      5   4   3     2.048090902982   118.91636700   180.02085854
 C      9   7   6    14.046620237388    91.72545221    90.30873554
 H     14   9   7     2.066760047555    86.89492541   142.74968295
 H     14   9   7     2.064174420724   138.99925362    26.94033489
 H     14   9   7     2.066557014439   100.18677215   251.45309747
 S     14   9   7     3.407438758650    30.73753133     3.31458701

---------------------
BASIS SET INFORMATION
---------------------
There are 6 groups of distinct atoms

 Group   1 Type C   : 12s6p1d contracted to 5s4p1d pattern {63111/3111/1}
 Group   2 Type N   : 12s6p1d contracted to 5s4p1d pattern {63111/3111/1}
 Group   3 Type O   : 12s6p1d contracted to 5s4p1d pattern {63111/3111/1}
 Group   4 Type F   : 12s6p1d contracted to 5s4p1d pattern {63111/3111/1}
 Group   5 Type H   : 6s1p contracted to 4s1p pattern {3111/1}
 Group   6 Type S   : 14s10p1d contracted to 7s6p1d pattern {6311111/421111/1}

Atom   0C    basis set group =>   1
Atom   1N    basis set group =>   2
Atom   2C    basis set group =>   1
Atom   3C    basis set group =>   1
Atom   4C    basis set group =>   1
Atom   5C    basis set group =>   1
Atom   6N    basis set group =>   2
Atom   7O    basis set group =>   3
Atom   8O    basis set group =>   3
Atom   9F    basis set group =>   4
Atom  10H    basis set group =>   5
Atom  11H    basis set group =>   5
Atom  12H    basis set group =>   5
Atom  13C    basis set group =>   1
Atom  14H    basis set group =>   5
Atom  15H    basis set group =>   5
Atom  16H    basis set group =>   5
Atom  17S    basis set group =>   6
---------------------------------
AUXILIARY/J BASIS SET INFORMATION
---------------------------------
There are 6 groups of distinct atoms

 Group   1 Type C   : 12s5p4d2f1g contracted to 6s4p3d1f1g pattern {711111/2111/211/2/1}
 Group   2 Type N   : 12s5p4d2f1g contracted to 6s4p3d1f1g pattern {711111/2111/211/2/1}
 Group   3 Type O   : 12s5p4d2f1g contracted to 6s4p3d1f1g pattern {711111/2111/211/2/1}
 Group   4 Type F   : 12s5p4d2f1g contracted to 6s4p3d1f1g pattern {711111/2111/211/2/1}
 Group   5 Type H   : 5s2p1d contracted to 3s1p1d pattern {311/2/1}
 Group   6 Type S   : 14s5p5d2f1g contracted to 8s4p3d1f1g pattern {71111111/2111/311/2/1}

Atom   0C    basis set group =>   1
Atom   1N    basis set group =>   2
Atom   2C    basis set group =>   1
Atom   3C    basis set group =>   1
Atom   4C    basis set group =>   1
Atom   5C    basis set group =>   1
Atom   6N    basis set group =>   2
Atom   7O    basis set group =>   3
Atom   8O    basis set group =>   3
Atom   9F    basis set group =>   4
Atom  10H    basis set group =>   5
Atom  11H    basis set group =>   5
Atom  12H    basis set group =>   5
Atom  13C    basis set group =>   1
Atom  14H    basis set group =>   5
Atom  15H    basis set group =>   5
Atom  16H    basis set group =>   5
Atom  17S    basis set group =>   6


           ************************************************************
           *        Program running with 24 parallel MPI-processes    *
           *              working on a common directory               *
           ************************************************************
------------------------------------------------------------------------------
                           ORCA GTO INTEGRAL CALCULATION
                           -- RI-GTO INTEGRALS CHOSEN --
------------------------------------------------------------------------------
------------------------------------------------------------------------------
                   ___                                                        
                  /   \      - P O W E R E D   B Y -                         
                 /     \                                                     
                 |  |  |   _    _      __       _____    __    __             
                 |  |  |  | |  | |    /  \     |  _  \  |  |  /  |          
                  \  \/   | |  | |   /    \    | | | |  |  | /  /          
                 / \  \   | |__| |  /  /\  \   | |_| |  |  |/  /          
                |  |  |   |  __  | /  /__\  \  |    /   |      \           
                |  |  |   | |  | | |   __   |  |    \   |  |\   \          
                \     /   | |  | | |  |  |  |  | |\  \  |  | \   \       
                 \___/    |_|  |_| |__|  |__|  |_| \__\ |__|  \__/        
                                                                              
                      - O R C A' S   B I G   F R I E N D -                    
                                      &                                       
                       - I N T E G R A L  F E E D E R -                       
                                                                              
 v1 FN, 2020, v2 2021                                                         
------------------------------------------------------------------------------


Reading SHARK input file structure_opt.SHARKINP.tmp ... ok
----------------------
SHARK INTEGRAL PACKAGE
----------------------

Number of atoms                             ...     18
Number of basis functions                   ...    314
Number of shells                            ...    154
Maximum angular momentum                    ...      2
Integral batch strategy                     ... SHARK/LIBINT Hybrid
RI-J (if used) integral strategy            ... SPLIT-RIJ (Revised 2003 algorithm where possible)
Printlevel                                  ...      1
Contraction scheme used                     ... SEGMENTED contraction
Coulomb Range Separation                    ... NOT USED
Exchange Range Separation                   ... Long Range
   Mu parameter                             ...  0.300000
   Scaling (regular/separated)              ...  0.157706  0.842294
Finite Nucleus Model                        ... NOT USED
Auxiliary Coulomb fitting basis             ... AVAILABLE
   # of basis functions in Aux-J            ...    656
   # of shells in Aux-J                     ...    212
   Maximum angular momentum in Aux-J        ...      4
Auxiliary J/K fitting basis                 ... NOT available
Auxiliary Correlation fitting basis         ... NOT available
Auxiliary 'external' fitting basis          ... NOT available
Integral threshold                          ...     2.500000e-11
Primitive cut-off                           ...     2.500000e-12
Primitive pair pre-selection threshold      ...     2.500000e-12

Calculating pre-screening integrals         ... done (  0.0 sec) Dimension = 154
Organizing shell pair data                  ... done (  0.1 sec)
Shell pair information
Total number of shell pairs                 ...     11935
Shell pairs after pre-screening             ...      9022
Total number of primitive shell pairs       ...     38500
Primitive shell pairs kept                  ...     20558
          la=0 lb=0:   2768 shell pairs
          la=1 lb=0:   3707 shell pairs
          la=1 lb=1:   1278 shell pairs
          la=2 lb=0:    722 shell pairs
          la=2 lb=1:    495 shell pairs
          la=2 lb=2:     52 shell pairs

Calculating one electron integrals          ... done (  0.0 sec)
Calculating RI/J V-Matrix + Cholesky decomp.... done (  0.1 sec)
Calculating Nuclear repulsion               ... done (  0.0 sec) ENN=    684.261022914885 Eh

SHARK setup successfully completed in   0.6 seconds

Maximum memory used throughout the entire GTOINT-calculation: 17.7 MB


           ************************************************************
           *        Program running with 24 parallel MPI-processes    *
           *              working on a common directory               *
           ************************************************************
-------------------------------------------------------------------------------
                                 ORCA SCF
-------------------------------------------------------------------------------

------------
SCF SETTINGS
------------
Hamiltonian:
 Density Functional     Method          .... DFT(GTOs)
 Exchange Functional    Exchange        .... WB97X
 Correlation Functional Correlation     .... WB97X
 Gradients option       PostSCFGGA      .... off
 Hybrid DFT is turned on
   Fraction HF Exchange ScalHFX         ....  0.157706
   Scaling of DF-GGA-X  ScalDFX         ....  0.000000
   Scaling of DF-GGA-C  ScalDFC         ....  1.000000
   Scaling of DF-LDA-C  ScalLDAC        ....  1.000000
   Perturbative correction              ....  0.000000
   Density functional embedding theory  .... OFF
 Long-range corrected/Screened/Range-Separated Hybrid DFT is turned on
   Amount of maximum screened exact exchange              ....  0.842294
   Range separation parameter mu (erf(mu*r12)/r12)        ....  0.300000
 RI-approximation to the Coulomb term is turned on
   Number of AuxJ basis functions       .... 656
   RIJ-COSX (HFX calculated with COS-X)).... on


General Settings:
 Integral files         IntName         .... structure_opt
 Hartree-Fock type      HFTyp           .... RHF
 Total Charge           Charge          ....   -1
 Multiplicity           Mult            ....    1
 Number of Electrons    NEL             ....   98
 Basis Dimension        Dim             ....  314
 Nuclear Repulsion      ENuc            ....    684.2610229149 Eh

Convergence Acceleration:
 DIIS                   CNVDIIS         .... on
   Start iteration      DIISMaxIt       ....    12
   Startup error        DIISStart       ....  0.200000
   # of expansion vecs  DIISMaxEq       ....     5
   Bias factor          DIISBfac        ....   1.050
   Max. coefficient     DIISMaxC        ....  10.000
 Trust-Rad. Augm. Hess. CNVTRAH         .... auto
   Auto Start mean grad. ratio tolernc. ....  1.125000
   Auto Start start iteration           ....    20
   Auto Start num. interpolation iter.  ....    10
   Max. Number of Micro iterations      ....    16
   Max. Number of Macro iterations      .... Maxiter - #DIIS iter
   Number of Davidson start vectors     ....     2
   Converg. threshold I  (grad. norm)   ....   1.000e-05
   Converg. threshold II (energy diff.) ....   1.000e-08
   Grad. Scal. Fac. for Micro threshold ....   0.100
   Minimum threshold for Micro iter.    ....   0.010
   NR start threshold (gradient norm)   ....   0.001
   Initial trust radius                 ....   0.400
   Minimum AH scaling param. (alpha)    ....   1.000
   Maximum AH scaling param. (alpha)    .... 1000.000
   Orbital update algorithm             .... Taylor
   White noise on init. David. guess    .... on
   Maximum white noise                  ....   0.010
   Quad. conv. algorithm                .... NR
 SOSCF                  CNVSOSCF        .... on
   Start iteration      SOSCFMaxIt      ....   150
   Startup grad/error   SOSCFStart      ....  0.003300
 Level Shifting         CNVShift        .... on
   Level shift para.    LevelShift      ....    0.2500
   Turn off err/grad.   ShiftErr        ....    0.0010
 Zerner damping         CNVZerner       .... off
 Static damping         CNVDamp         .... on
   Fraction old density DampFac         ....    0.7000
   Max. Damping (<1)    DampMax         ....    0.9800
   Min. Damping (>=0)   DampMin         ....    0.0000
   Turn off err/grad.   DampErr         ....    0.1000
 Fernandez-Rico         CNVRico         .... off

SCF Procedure:
 Maximum # iterations   MaxIter         ....   125
 SCF integral mode      SCFMode         .... Direct
   Integral package                     .... SHARK and LIBINT hybrid scheme
 Reset frequency        DirectResetFreq ....    20
 Integral Threshold     Thresh          ....  2.500e-11 Eh
 Primitive CutOff       TCut            ....  2.500e-12 Eh

Convergence Tolerance:
 Convergence Check Mode ConvCheckMode   .... Total+1el-Energy
 Convergence forced     ConvForced      .... 0
 Energy Change          TolE            ....  1.000e-08 Eh
 1-El. energy change                    ....  1.000e-05 Eh
 Orbital Gradient       TolG            ....  1.000e-05
 Orbital Rotation angle TolX            ....  1.000e-05
 DIIS Error             TolErr          ....  5.000e-07


Diagonalization of the overlap matrix:
Smallest eigenvalue                        ... 4.225e-06
Time for diagonalization                   ...    0.054 sec
Threshold for overlap eigenvalues          ... 1.000e-08
Number of eigenvalues below threshold      ... 0
Time for construction of square roots      ...    0.026 sec
Total time needed                          ...    0.082 sec

Time for model grid setup =    0.504 sec

------------------------------
INITIAL GUESS: MODEL POTENTIAL
------------------------------
Loading Hartree-Fock densities                     ... done
Calculating cut-offs                               ... done
Initializing the effective Hamiltonian             ... done
Setting up the integral package (SHARK)            ... done
Starting the Coulomb interaction                   ... done (   0.1 sec)
Reading the grid                                   ... done
Mapping shells                                     ... done
Starting the XC term evaluation                    ... done (   0.0 sec)
  promolecular density results
     # of electrons  =     96.996394262
     EX              =    -96.552643577
     EC              =     -3.327228317
     EX+EC           =    -99.879871894
Transforming the Hamiltonian                       ... done (   0.0 sec)
Diagonalizing the Hamiltonian                      ... done (   0.0 sec)
Back transforming the eigenvectors                 ... done (   0.0 sec)
Now organizing SCF variables                       ... done
                      ------------------
                      INITIAL GUESS DONE (   0.6 sec)
                      ------------------
-------------------
DFT GRID GENERATION
-------------------

General Integration Accuracy     IntAcc      ... 4.388
Radial Grid Type                 RadialGrid  ... OptM3 with GC (2021)
Angular Grid (max. ang.)         AngularGrid ... 4 (Lebedev-302)
Angular grid pruning method      GridPruning ... 4 (adaptive)
Weight generation scheme         WeightScheme... Becke
Basis function cutoff            BFCut       ... 1.0000e-11
Integration weight cutoff        WCut        ... 1.0000e-14
Angular grids for H and He will be reduced by one unit
Partially contracted basis set               ... off
Rotationally invariant grid construction     ... off

Total number of grid points                  ...    98131
Total number of batches                      ...     1541
Average number of points per batch           ...       63
Average number of grid points per atom       ...     5452
Time for grid setup =    0.829 sec

--------------------
COSX GRID GENERATION
--------------------

GRIDX 1
-------
General Integration Accuracy     IntAcc      ... 3.816
Radial Grid Type                 RadialGrid  ... OptM3 with GC (2021)
Angular Grid (max. ang.)         AngularGrid ... 1 (Lebedev-50)
Angular grid pruning method      GridPruning ... 4 (adaptive)
Weight generation scheme         WeightScheme... Becke
Basis function cutoff            BFCut       ... 1.0000e-11
Integration weight cutoff        WCut        ... 1.0000e-14
Angular grids for H and He will be reduced by one unit
Partially contracted basis set               ... on
Rotationally invariant grid construction     ... off

Total number of grid points                  ...    12252
Total number of batches                      ...      203
Average number of points per batch           ...       60
Average number of grid points per atom       ...      681
UseSFitting                                  ... on

GRIDX 2
-------
General Integration Accuracy     IntAcc      ... 4.020
Radial Grid Type                 RadialGrid  ... OptM3 with GC (2021)
Angular Grid (max. ang.)         AngularGrid ... 2 (Lebedev-110)
Angular grid pruning method      GridPruning ... 4 (adaptive)
Weight generation scheme         WeightScheme... Becke
Basis function cutoff            BFCut       ... 1.0000e-11
Integration weight cutoff        WCut        ... 1.0000e-14
Angular grids for H and He will be reduced by one unit
Partially contracted basis set               ... on
Rotationally invariant grid construction     ... off

Total number of grid points                  ...    31059
Total number of batches                      ...      495
Average number of points per batch           ...       62
Average number of grid points per atom       ...     1726
UseSFitting                                  ... on

GRIDX 3
-------
General Integration Accuracy     IntAcc      ... 4.338
Radial Grid Type                 RadialGrid  ... OptM3 with GC (2021)
Angular Grid (max. ang.)         AngularGrid ... 3 (Lebedev-194)
Angular grid pruning method      GridPruning ... 4 (adaptive)
Weight generation scheme         WeightScheme... Becke
Basis function cutoff            BFCut       ... 1.0000e-11
Integration weight cutoff        WCut        ... 1.0000e-14
Angular grids for H and He will be reduced by one unit
Partially contracted basis set               ... on
Rotationally invariant grid construction     ... off

Total number of grid points                  ...    69060
Total number of batches                      ...     1090
Average number of points per batch           ...       63
Average number of grid points per atom       ...     3837
UseSFitting                                  ... on

Time for X-Grid setup             =    1.121 sec


--------------------
CPCM SOLVATION MODEL
--------------------
CPCM parameters:
  Epsilon                                         ...      78.3550
  Refrac                                          ...       1.3328
  Rsolv                                           ...       1.3000
  Surface type                                    ... GAUSSIAN VDW
  Epsilon function type                           ...         CPCM
Solvent:                                     ... WATER
SMD-CDS solvent descriptors:
  Soln                                       ...    1.3328
  Soln25                                     ...    1.3323
  Sola                                       ...    0.0000
  Solb                                       ...    0.0000
  Solg                                       ...    0.0000
  Solc                                       ...    0.0000
  Solh                                       ...    0.0000
Radii:
 Radius for C  used is    3.4960 Bohr (=   1.8500 Ang.)
 Radius for N  used is    3.5716 Bohr (=   1.8900 Ang.)
 Radius for O  used is    2.8724 Bohr (=   1.5200 Ang.)
 Radius for F  used is    3.2692 Bohr (=   1.7300 Ang.)
 Radius for H  used is    2.2677 Bohr (=   1.2000 Ang.)
 Radius for S  used is    4.7054 Bohr (=   2.4900 Ang.)
Calculating surface                               ...        done! (  0.0s)
GEPOL surface points                              ...         1149
GEPOL Volume                                      ...    1364.6852
GEPOL Surface-area                                ...     848.8845
Calculating surface distance matrix               ...        done! (  0.0s)
Performing Cholesky decomposition & store         ...        done! (  0.1s)
Overall time for CPCM initialization              ...                 0.1s
--------------
SCF ITERATIONS
--------------
ITER       Energy         Delta-E        Max-DP      RMS-DP      [F,P]     Damp
               ***  Starting incremental Fock matrix formation  ***
  0   -989.8660447768   0.000000000000 0.34386389  0.00325538  0.2373420 0.7000
  1   -990.0282621068  -0.162217330062 0.35667372  0.00291357  0.1156338 0.7000
                               ***Turning on DIIS***
  2   -990.1007043892  -0.072442282377 1.87386502  0.01073467  0.0599471 0.0000
  3   -990.2247637709  -0.124059381695 0.77928998  0.00419132  0.0549965 0.0000
  4   -990.2439083549  -0.019144584003 0.27254809  0.00148984  0.0124322 0.0000
  5   -990.2450829928  -0.001174637845 0.13737184  0.00077433  0.0061507 0.0000
                      *** Initiating the SOSCF procedure ***
                           *** Shutting down DIIS ***
                      *** Re-Reading the Fockian *** 
                      *** Removing any level shift *** 
ITER      Energy       Delta-E        Grad      Rot      Max-DP    RMS-DP
  6   -990.24531412  -0.0002311270  0.001495  0.001495  0.036974  0.000244
               *** Restarting incremental Fock matrix formation ***
  7   -990.24537963  -0.0000655068  0.000978  0.002400  0.024048  0.000228
  8   -990.24541849  -0.0000388632  0.000342  0.002525  0.017116  0.000195
  9   -990.24542469  -0.0000061971  0.000677  0.000709  0.008725  0.000106
 10   -990.24543139  -0.0000067014  0.000111  0.000185  0.005267  0.000036
 11   -990.24543144  -0.0000000558  0.000092  0.000126  0.003229  0.000019
 12   -990.24543180  -0.0000003602  0.000015  0.000039  0.003316  0.000022
 13   -990.24543181  -0.0000000022  0.000007  0.000031  0.011405  0.000073
 14   -990.24543181  -0.0000000034  0.000005  0.000013  0.006985  0.000042
                  ***Gradient check signals convergence***
              ***Rediagonalizing the Fockian in SOSCF/NRSCF***

               *****************************************************
               *                     SUCCESS                       *
               *           SCF CONVERGED AFTER  15 CYCLES          *
               *****************************************************

Old exchange energy                            =    -28.432827472 Eh
New exchange energy                            =    -28.432831149 Eh
Exchange energy change after final integration =     -0.000003677 Eh
Total energy after final integration           =   -990.245435492 Eh
Final COS-X integration done in                =     3.524 sec

SMD CDS free energy correction energy :                 5.87385     Kcal/mol
Total Energy after SMD CDS correction =              -990.236074911 Eh

----------------
TOTAL SCF ENERGY
----------------

Total Energy       :         -990.23607491 Eh          -26945.69349 eV

Components:
Nuclear Repulsion  :          684.26102291 Eh           18619.68904 eV
Electronic Energy  :        -1674.49709783 Eh          -45565.38253 eV
One Electron Energy:        -2728.30781012 Eh          -74241.02985 eV
Two Electron Energy:         1053.81071229 Eh           28675.64732 eV
Max COSX asymmetry :            0.00000189 Eh               0.00005 eV
CPCM Dielectric    :           -0.13299440 Eh              -3.61896 eV
SMD CDS (Gcds)     :            0.00936058 Eh               0.25471 eV

Virial components:
Potential Energy   :        -1977.46960837 Eh          -53809.68368 eV
Kinetic Energy     :          987.23353346 Eh           26863.99018 eV
Virial Ratio       :            2.00304137


DFT components:
N(Alpha)           :       48.999922800050 electrons
N(Beta)            :       48.999922800050 electrons
N(Total)           :       97.999845600100 electrons
E(XC)              :      -73.338480452337 Eh       
DFET-embed. en.    :        0.000000000000 Eh       
CPCM Solvation Model Properties:
Surface-charge          :            0.94713148
Charge-correction       :           -0.00561538 Eh              -0.15280 eV
Free-energy (cav+disp)  :            0.00936058 Eh               0.25471 eV

---------------
SCF CONVERGENCE
---------------

  Last Energy change         ...   -5.9011e-09  Tolerance :   1.0000e-08
  Last MAX-Density change    ...    4.4409e-15  Tolerance :   1.0000e-07
  Last RMS-Density change    ...    4.5259e-17  Tolerance :   5.0000e-09
  Last Orbital Gradient      ...    1.9650e-06  Tolerance :   1.0000e-05
  Last Orbital Rotation      ...    1.8281e-06  Tolerance :   1.0000e-05

             **** THE GBW FILE WAS UPDATED (structure_opt.gbw) ****
             **** DENSITY structure_opt.scfp WAS UPDATED ****
             **** ENERGY FILE WAS UPDATED (structure_opt.en.tmp) ****
             **** THE GBW FILE WAS UPDATED (structure_opt.gbw) ****
             **** DENSITY structure_opt.scfp WAS UPDATED ****
----------------
ORBITAL ENERGIES
----------------

  NO   OCC          E(Eh)            E(eV) 
   0   2.0000     -88.720174     -2414.1987 
   1   2.0000     -24.793293      -674.6598 
   2   2.0000     -19.275465      -524.5121 
   3   2.0000     -19.243790      -523.6501 
   4   2.0000     -14.669685      -399.1824 
   5   2.0000     -14.435517      -392.8104 
   6   2.0000     -10.437623      -284.0222 
   7   2.0000     -10.364045      -282.0200 
   8   2.0000     -10.338154      -281.3155 
   9   2.0000     -10.321077      -280.8508 
  10   2.0000     -10.290427      -280.0167 
  11   2.0000     -10.235890      -278.5327 
  12   2.0000      -7.916052      -215.4067 
  13   2.0000      -5.879206      -159.9813 
  14   2.0000      -5.871811      -159.7801 
  15   2.0000      -5.871794      -159.7796 
  16   2.0000      -1.396328       -37.9960 
  17   2.0000      -1.348080       -36.6831 
  18   2.0000      -1.151332       -31.3293 
  19   2.0000      -1.109212       -30.1832 
  20   2.0000      -1.008301       -27.4373 
  21   2.0000      -0.943330       -25.6693 
  22   2.0000      -0.873913       -23.7804 
  23   2.0000      -0.836299       -22.7569 
  24   2.0000      -0.796586       -21.6762 
  25   2.0000      -0.769114       -20.9286 
  26   2.0000      -0.705925       -19.2092 
  27   2.0000      -0.686467       -18.6797 
  28   2.0000      -0.669295       -18.2124 
  29   2.0000      -0.665179       -18.1004 
  30   2.0000      -0.661601       -18.0031 
  31   2.0000      -0.633163       -17.2292 
  32   2.0000      -0.620313       -16.8796 
  33   2.0000      -0.615183       -16.7400 
  34   2.0000      -0.563759       -15.3407 
  35   2.0000      -0.537035       -14.6135 
  36   2.0000      -0.527890       -14.3646 
  37   2.0000      -0.527864       -14.3639 
  38   2.0000      -0.494659       -13.4603 
  39   2.0000      -0.494252       -13.4493 
  40   2.0000      -0.455962       -12.4074 
  41   2.0000      -0.432339       -11.7646 
  42   2.0000      -0.421511       -11.4699 
  43   2.0000      -0.416352       -11.3295 
  44   2.0000      -0.408004       -11.1024 
  45   2.0000      -0.390749       -10.6328 
  46   2.0000      -0.384863       -10.4727 
  47   2.0000      -0.258991        -7.0475 
  48   2.0000      -0.258952        -7.0465 
  49   0.0000      -0.064674        -1.7599 
  50   0.0000       0.022747         0.6190 
  51   0.0000       0.051474         1.4007 
  52   0.0000       0.055509         1.5105 
  53   0.0000       0.059790         1.6270 
  54   0.0000       0.068633         1.8676 
  55   0.0000       0.073641         2.0039 
  56   0.0000       0.086416         2.3515 
  57   0.0000       0.090550         2.4640 
  58   0.0000       0.092492         2.5168 
  59   0.0000       0.099576         2.7096 
  60   0.0000       0.113269         3.0822 
  61   0.0000       0.118347         3.2204 
  62   0.0000       0.126142         3.4325 
  63   0.0000       0.128312         3.4915 
  64   0.0000       0.136193         3.7060 
  65   0.0000       0.144340         3.9277 
  66   0.0000       0.148794         4.0489 
  67   0.0000       0.158256         4.3064 
  68   0.0000       0.163924         4.4606 
  69   0.0000       0.168869         4.5952 
  70   0.0000       0.169056         4.6002 
  71   0.0000       0.173019         4.7081 
  72   0.0000       0.177590         4.8325 
  73   0.0000       0.180130         4.9016 
  74   0.0000       0.181322         4.9340 
  75   0.0000       0.188034         5.1167 
  76   0.0000       0.193745         5.2721 
  77   0.0000       0.195821         5.3286 
  78   0.0000       0.199326         5.4239 
  79   0.0000       0.206403         5.6165 
  80   0.0000       0.210037         5.7154 
  81   0.0000       0.220392         5.9972 
  82   0.0000       0.222067         6.0427 
  83   0.0000       0.231777         6.3070 
  84   0.0000       0.236816         6.4441 
  85   0.0000       0.242206         6.5908 
  86   0.0000       0.249498         6.7892 
  87   0.0000       0.256773         6.9872 
  88   0.0000       0.264745         7.2041 
  89   0.0000       0.271287         7.3821 
  90   0.0000       0.273695         7.4476 
  91   0.0000       0.278589         7.5808 
  92   0.0000       0.278842         7.5877 
  93   0.0000       0.283335         7.7099 
  94   0.0000       0.293600         7.9893 
  95   0.0000       0.297021         8.0824 
  96   0.0000       0.301973         8.2171 
  97   0.0000       0.312513         8.5039 
  98   0.0000       0.319502         8.6941 
  99   0.0000       0.324248         8.8232 
 100   0.0000       0.331341         9.0162 
 101   0.0000       0.342413         9.3175 
 102   0.0000       0.349751         9.5172 
 103   0.0000       0.350680         9.5425 
 104   0.0000       0.358452         9.7540 
 105   0.0000       0.362947         9.8763 
 106   0.0000       0.373445        10.1619 
 107   0.0000       0.378631        10.3031 
 108   0.0000       0.395761        10.7692 
 109   0.0000       0.403891        10.9904 
 110   0.0000       0.409764        11.1503 
 111   0.0000       0.416491        11.3333 
 112   0.0000       0.424633        11.5548 
 113   0.0000       0.431182        11.7331 
 114   0.0000       0.438225        11.9247 
 115   0.0000       0.453291        12.3347 
 116   0.0000       0.461300        12.5526 
 117   0.0000       0.467979        12.7344 
 118   0.0000       0.475838        12.9482 
 119   0.0000       0.491962        13.3870 
 120   0.0000       0.493622        13.4321 
 121   0.0000       0.506368        13.7790 
 122   0.0000       0.521212        14.1829 
 123   0.0000       0.529423        14.4063 
 124   0.0000       0.532016        14.4769 
 125   0.0000       0.550627        14.9833 
 126   0.0000       0.583458        15.8767 
 127   0.0000       0.613250        16.6874 
 128   0.0000       0.618355        16.8263 
 129   0.0000       0.629968        17.1423 
 130   0.0000       0.640260        17.4223 
 131   0.0000       0.644926        17.5493 
 132   0.0000       0.661729        18.0066 
 133   0.0000       0.668572        18.1928 
 134   0.0000       0.674297        18.3486 
 135   0.0000       0.701321        19.0839 
 136   0.0000       0.703719        19.1492 
 137   0.0000       0.729872        19.8608 
 138   0.0000       0.748839        20.3770 
 139   0.0000       0.770928        20.9780 
 140   0.0000       0.771263        20.9871 
 141   0.0000       0.780969        21.2512 
 142   0.0000       0.811919        22.0934 
 143   0.0000       0.827885        22.5279 
 144   0.0000       0.840423        22.8691 
 145   0.0000       0.850957        23.1557 
 146   0.0000       0.856049        23.2943 
 147   0.0000       0.872576        23.7440 
 148   0.0000       0.904974        24.6256 
 149   0.0000       0.911186        24.7946 
 150   0.0000       0.921216        25.0676 
 151   0.0000       0.935401        25.4536 
 152   0.0000       0.954267        25.9669 
 153   0.0000       0.955766        26.0077 
 154   0.0000       0.961279        26.1577 
 155   0.0000       0.973743        26.4969 
 156   0.0000       0.979574        26.6556 
 157   0.0000       0.986958        26.8565 
 158   0.0000       1.004166        27.3248 
 159   0.0000       1.004447        27.3324 
 160   0.0000       1.008127        27.4325 
 161   0.0000       1.035899        28.1883 
 162   0.0000       1.045726        28.4556 
 163   0.0000       1.062217        28.9044 
 164   0.0000       1.074499        29.2386 
 165   0.0000       1.080865        29.4118 
 166   0.0000       1.084111        29.5002 
 167   0.0000       1.141349        31.0577 
 168   0.0000       1.148536        31.2533 
 169   0.0000       1.153161        31.3791 
 170   0.0000       1.173024        31.9196 
 171   0.0000       1.193874        32.4870 
 172   0.0000       1.203186        32.7404 
 173   0.0000       1.215505        33.0756 
 174   0.0000       1.249695        34.0059 
 175   0.0000       1.262145        34.3447 
 176   0.0000       1.278189        34.7813 
 177   0.0000       1.279813        34.8255 
 178   0.0000       1.280143        34.8345 
 179   0.0000       1.293422        35.1958 
 180   0.0000       1.300255        35.3817 
 181   0.0000       1.357109        36.9288 
 182   0.0000       1.397409        38.0254 
 183   0.0000       1.408427        38.3252 
 184   0.0000       1.471430        40.0396 
 185   0.0000       1.512530        41.1580 
 186   0.0000       1.545246        42.0483 
 187   0.0000       1.587349        43.1940 
 188   0.0000       1.589634        43.2561 
 189   0.0000       1.590152        43.2702 
 190   0.0000       1.618118        44.0312 
 191   0.0000       1.632430        44.4207 
 192   0.0000       1.656167        45.0666 
 193   0.0000       1.657957        45.1153 
 194   0.0000       1.694183        46.1011 
 195   0.0000       1.694928        46.1213 
 196   0.0000       1.704967        46.3945 
 197   0.0000       1.716481        46.7078 
 198   0.0000       1.749220        47.5987 
 199   0.0000       1.762978        47.9731 
 200   0.0000       1.787426        48.6383 
 201   0.0000       1.810356        49.2623 
 202   0.0000       1.810628        49.2697 
 203   0.0000       1.815410        49.3998 
 204   0.0000       1.843885        50.1747 
 205   0.0000       1.854496        50.4634 
 206   0.0000       1.869475        50.8710 
 207   0.0000       1.911157        52.0052 
 208   0.0000       1.934953        52.6527 
 209   0.0000       1.947990        53.0075 
 210   0.0000       1.971714        53.6531 
 211   0.0000       1.975410        53.7537 
 212   0.0000       1.991247        54.1846 
 213   0.0000       2.011166        54.7266 
 214   0.0000       2.033086        55.3231 
 215   0.0000       2.045269        55.6546 
 216   0.0000       2.057256        55.9808 
 217   0.0000       2.111059        57.4448 
 218   0.0000       2.141255        58.2665 
 219   0.0000       2.148791        58.4716 
 220   0.0000       2.168619        59.0111 
 221   0.0000       2.173122        59.1336 
 222   0.0000       2.177548        59.2541 
 223   0.0000       2.206581        60.0441 
 224   0.0000       2.292954        62.3944 
 225   0.0000       2.324340        63.2485 
 226   0.0000       2.332613        63.4736 
 227   0.0000       2.333308        63.4925 
 228   0.0000       2.399510        65.2940 
 229   0.0000       2.430179        66.1285 
 230   0.0000       2.495138        67.8961 
 231   0.0000       2.564052        69.7714 
 232   0.0000       2.592556        70.5470 
 233   0.0000       2.596207        70.6464 
 234   0.0000       2.605179        70.8905 
 235   0.0000       2.627581        71.5001 
 236   0.0000       2.660913        72.4071 
 237   0.0000       2.661371        72.4196 
 238   0.0000       2.673908        72.7607 
 239   0.0000       2.674791        72.7848 
 240   0.0000       2.692445        73.2652 
 241   0.0000       2.785158        75.7880 
 242   0.0000       2.785854        75.8069 
 243   0.0000       2.829032        76.9819 
 244   0.0000       2.840955        77.3063 
 245   0.0000       2.859171        77.8020 
 246   0.0000       2.868668        78.0604 
 247   0.0000       2.884680        78.4961 
 248   0.0000       2.896865        78.8277 
 249   0.0000       2.902350        78.9770 
 250   0.0000       2.935554        79.8805 
 251   0.0000       2.937682        79.9384 
 252   0.0000       2.961235        80.5793 
 253   0.0000       2.978125        81.0389 
 254   0.0000       2.987132        81.2840 
 255   0.0000       3.002802        81.7104 
 256   0.0000       3.011079        81.9356 
 257   0.0000       3.098970        84.3273 
 258   0.0000       3.153834        85.8202 
 259   0.0000       3.188878        86.7738 
 260   0.0000       3.268977        88.9534 
 261   0.0000       3.307819        90.0103 
 262   0.0000       3.308415        90.0265 
 263   0.0000       3.343298        90.9758 
 264   0.0000       3.368977        91.6745 
 265   0.0000       3.454329        93.9971 
 266   0.0000       3.498808        95.2074 
 267   0.0000       3.559115        96.8485 
 268   0.0000       3.594416        97.8090 
 269   0.0000       3.681062       100.1668 
 270   0.0000       3.704127       100.7944 
 271   0.0000       3.753846       102.1474 
 272   0.0000       3.853579       104.8612 
 273   0.0000       3.888530       105.8123 
 274   0.0000       3.889268       105.8323 
 275   0.0000       3.892132       105.9103 
 276   0.0000       3.905688       106.2792 
 277   0.0000       3.924747       106.7978 
 278   0.0000       4.014168       109.2311 
 279   0.0000       4.059811       110.4731 
 280   0.0000       4.120181       112.1158 
 281   0.0000       4.144186       112.7690 
 282   0.0000       4.169116       113.4474 
 283   0.0000       4.405730       119.8860 
 284   0.0000       4.478976       121.8791 
 285   0.0000       4.503764       122.5537 
 286   0.0000       4.761622       129.5703 
 287   0.0000       4.942885       134.5027 
 288   0.0000       5.073294       138.0514 
 289   0.0000       5.107235       138.9749 
 290   0.0000       5.192981       141.3082 
 291   0.0000       5.219809       142.0382 
 292   0.0000       5.314721       144.6209 
 293   0.0000       5.699373       155.0878 
 294   0.0000       6.130418       166.8172 
 295   0.0000       6.414020       174.5343 
 296   0.0000       6.541927       178.0149 
 297   0.0000       6.841237       186.1595 
 298   0.0000       7.980350       217.1564 
 299   0.0000      17.547617       477.4949 
 300   0.0000      17.550787       477.5812 
 301   0.0000      17.644321       480.1264 
 302   0.0000      23.651311       643.5849 
 303   0.0000      23.890637       650.0973 
 304   0.0000      23.984786       652.6592 
 305   0.0000      24.031667       653.9349 
 306   0.0000      24.071443       655.0173 
 307   0.0000      24.181514       658.0124 
 308   0.0000      35.375695       962.6216 
 309   0.0000      35.657607       970.2928 
 310   0.0000      49.901629      1357.8924 
 311   0.0000      49.964003      1359.5897 
 312   0.0000      66.792628      1817.5198 
 313   0.0000     188.969589      5142.1239 

--------------------
FRAGMENT INFORMATION
--------------------
Fragment  1:    0   1   2   3   4   5 
Fragment  2:    6   7   8   9  10  11  12 
Fragment  3:   13  14  15  16 
Fragment  4:   17 


                    ********************************
                    * MULLIKEN POPULATION ANALYSIS *
                    ********************************

-------------------------
MULLIKEN FRAGMENT CHARGES
-------------------------
 Fragment   0 :  -0.464339
 Fragment   1 :   0.465604
 Fragment   2 :  -0.029719
 Fragment   3 :  -0.971546
Sum of fragment charges:   -1.0000000

---------------------------------
MULLIKEN FRAGMENT OVERLAP CHARGES
---------------------------------
                  0          1          2          3    
      0      19.496450   0.495871   0.000187  -0.002154
      1       0.495871  35.012276  -0.000147   0.005318
      2       0.000187  -0.000147  11.659798  -0.680570
      3      -0.002154   0.005318  -0.680570  17.310249

-----------------------
MULLIKEN ATOMIC CHARGES
-----------------------
   0 C :   -0.038513
   1 N :   -0.200973
   2 C :   -0.294818
   3 C :   -0.259424
   4 C :    0.455446
   5 C :   -0.126058
   6 N :   -0.033595
   7 O :   -0.064241
   8 O :   -0.235962
   9 F :   -0.103029
  10 H :    0.295573
  11 H :    0.281212
  12 H :    0.325645
  13 C :   -0.411795
  14 H :    0.127213
  15 H :    0.127338
  16 H :    0.127526
  17 S :   -0.971546
Sum of atomic charges:   -1.0000000

--------------------------------
MULLIKEN REDUCED ORBITAL CHARGES
--------------------------------
  0 C s       :     3.283180  s :     3.283180
      pz      :     0.676519  p :     2.594914
      px      :     0.975277
      py      :     0.943119
      dz2     :     0.052752  d :     0.160419
      dxz     :     0.048833
      dyz     :     0.028431
      dx2y2   :     0.013767
      dxy     :     0.016635
  1 N s       :     3.622966  s :     3.622966
      pz      :     1.141994  p :     3.547483
      px      :     1.241481
      py      :     1.164008
      dz2     :     0.008165  d :     0.030524
      dxz     :     0.007239
      dyz     :     0.004759
      dx2y2   :     0.005503
      dxy     :     0.004859
  2 C s       :     3.379805  s :     3.379805
      pz      :     0.811372  p :     2.830872
      px      :     1.165339
      py      :     0.854160
      dz2     :     0.023582  d :     0.084142
      dxz     :     0.032191
      dyz     :     0.014800
      dx2y2   :     0.007221
      dxy     :     0.006349
  3 C s       :     3.212272  s :     3.212272
      pz      :     1.158760  p :     2.993996
      px      :     0.866268
      py      :     0.968968
      dz2     :     0.015293  d :     0.053156
      dxz     :     0.017411
      dyz     :     0.005092
      dx2y2   :     0.008210
      dxy     :     0.007150
  4 C s       :     2.495656  s :     2.495656
      pz      :     0.896637  p :     2.991822
      px      :     1.239038
      py      :     0.856148
      dz2     :     0.016545  d :     0.057076
      dxz     :     0.015855
      dyz     :     0.010556
      dx2y2   :     0.007216
      dxy     :     0.006904
  5 C s       :     3.326639  s :     3.326639
      pz      :     1.120678  p :     2.726280
      px      :     0.497867
      py      :     1.107736
      dz2     :     0.013627  d :     0.073138
      dxz     :     0.029768
      dyz     :     0.010338
      dx2y2   :     0.011216
      dxy     :     0.008189
  6 N s       :     3.555558  s :     3.555558
      pz      :     1.052094  p :     3.369055
      px      :     1.216894
      py      :     1.100068
      dz2     :     0.027715  d :     0.108982
      dxz     :     0.039356
      dyz     :     0.023078
      dx2y2   :     0.008550
      dxy     :     0.010283
  7 O s       :     3.786873  s :     3.786873
      pz      :     1.029338  p :     4.258672
      px      :     1.828382
      py      :     1.400953
      dz2     :     0.009709  d :     0.018696
      dxz     :     0.003512
      dyz     :     0.005306
      dx2y2   :     0.000102
      dxy     :     0.000067
  8 O s       :     3.822053  s :     3.822053
      pz      :     1.624755  p :     4.401794
      px      :     1.218735
      py      :     1.558304
      dz2     :     0.001059  d :     0.012116
      dxz     :     0.004900
      dyz     :     0.000879
      dx2y2   :     0.003118
      dxy     :     0.002159
  9 F s       :     3.918789  s :     3.918789
      pz      :     1.389063  p :     5.178908
      px      :     1.915795
      py      :     1.874050
      dz2     :     0.003096  d :     0.005331
      dxz     :     0.000997
      dyz     :     0.001201
      dx2y2   :     0.000027
      dxy     :     0.000009
 10 H s       :     0.680527  s :     0.680527
      pz      :     0.005482  p :     0.023900
      px      :     0.014120
      py      :     0.004299
 11 H s       :     0.693825  s :     0.693825
      pz      :     0.016373  p :     0.024963
      px      :     0.003655
      py      :     0.004935
 12 H s       :     0.648834  s :     0.648834
      pz      :     0.007745  p :     0.025521
      px      :     0.013376
      py      :     0.004400
 13 C s       :     3.271193  s :     3.271193
      pz      :     1.051592  p :     3.087975
      px      :     1.052728
      py      :     0.983654
      dz2     :     0.012936  d :     0.052627
      dxz     :     0.004121
      dyz     :     0.011695
      dx2y2   :     0.014426
      dxy     :     0.009449
 14 H s       :     0.850087  s :     0.850087
      pz      :     0.004726  p :     0.022700
      px      :     0.013259
      py      :     0.004715
 15 H s       :     0.849920  s :     0.849920
      pz      :     0.007343  p :     0.022742
      px      :     0.006304
      py      :     0.009096
 16 H s       :     0.849757  s :     0.849757
      pz      :     0.012660  p :     0.022717
      px      :     0.005232
      py      :     0.004825
 17 S s       :     6.016902  s :     6.016902
      pz      :     3.893239  p :    10.923243
      px      :     3.902965
      py      :     3.127039
      dz2     :     0.004151  d :     0.031401
      dxz     :     0.001076
      dyz     :     0.007953
      dx2y2   :     0.010751
      dxy     :     0.007469


                     *******************************
                     * LOEWDIN POPULATION ANALYSIS *
                     *******************************

------------------------
LOEWDIN FRAGMENT CHARGES
------------------------
 Fragment   0 :   0.056547
 Fragment   1 :  -0.057394
 Fragment   2 :  -0.355196
 Fragment   3 :  -0.643957

----------------------------
LOEWDIN FRAGMENT BOND ORDERS
----------------------------
                  0          1          2          3    
      0      56.962553   6.779991   0.000399   0.001483
      1       6.779991  43.787687   0.000168   0.000816
      2       0.000399   0.000168  15.418971   1.743509
      3       0.001483   0.000816   1.743509  16.643957

----------------------
LOEWDIN ATOMIC CHARGES
----------------------
   0 C :    0.111270
   1 N :   -0.111933
   2 C :    0.077250
   3 C :   -0.033814
   4 C :    0.077870
   5 C :   -0.064096
   6 N :    0.241371
   7 O :   -0.153987
   8 O :   -0.338195
   9 F :   -0.078215
  10 H :    0.086969
  11 H :    0.084536
  12 H :    0.100127
  13 C :   -0.358357
  14 H :    0.001191
  15 H :    0.000963
  16 H :    0.001007
  17 S :   -0.643957

-------------------------------
LOEWDIN REDUCED ORBITAL CHARGES
-------------------------------
  0 C s       :     2.743769  s :     2.743769
      pz      :     0.849299  p :     2.815845
      px      :     1.080543
      py      :     0.886003
      dz2     :     0.112516  d :     0.329117
      dxz     :     0.100704
      dyz     :     0.050386
      dx2y2   :     0.033882
      dxy     :     0.031628
  1 N s       :     3.151569  s :     3.151569
      pz      :     1.301227  p :     3.903526
      px      :     1.416948
      py      :     1.185351
      dz2     :     0.017385  d :     0.056839
      dxz     :     0.015719
      dyz     :     0.007794
      dx2y2   :     0.009543
      dxy     :     0.006398
  2 C s       :     2.786890  s :     2.786890
      pz      :     1.032877  p :     2.954014
      px      :     1.096528
      py      :     0.824609
      dz2     :     0.060306  d :     0.181846
      dxz     :     0.069050
      dyz     :     0.027986
      dx2y2   :     0.014014
      dxy     :     0.010490
  3 C s       :     2.781257  s :     2.781257
      pz      :     1.081356  p :     3.128195
      px      :     1.092147
      py      :     0.954691
      dz2     :     0.034118  d :     0.124362
      dxz     :     0.045069
      dyz     :     0.008013
      dx2y2   :     0.022212
      dxy     :     0.014950
  4 C s       :     2.779253  s :     2.779253
      pz      :     1.065888  p :     3.014578
      px      :     1.108292
      py      :     0.840399
      dz2     :     0.040905  d :     0.128300
      dxz     :     0.039163
      dyz     :     0.021255
      dx2y2   :     0.015054
      dxy     :     0.011922
  5 C s       :     2.758011  s :     2.758011
      pz      :     1.088538  p :     3.125766
      px      :     0.957500
      py      :     1.079728
      dz2     :     0.039907  d :     0.180320
      dxz     :     0.071780
      dyz     :     0.019828
      dx2y2   :     0.031419
      dxy     :     0.017385
  6 N s       :     3.051824  s :     3.051824
      pz      :     1.205984  p :     3.500437
      px      :     1.215230
      py      :     1.079222
      dz2     :     0.060437  d :     0.206368
      dxz     :     0.076192
      dyz     :     0.035697
      dx2y2   :     0.017517
      dxy     :     0.016524
  7 O s       :     3.580957  s :     3.580957
      pz      :     1.283752  p :     4.540719
      px      :     1.838818
      py      :     1.418148
      dz2     :     0.020435  d :     0.032312
      dxz     :     0.005157
      dyz     :     0.006529
      dx2y2   :     0.000119
      dxy     :     0.000071
  8 O s       :     3.667028  s :     3.667028
      pz      :     1.709885  p :     4.650682
      px      :     1.369788
      py      :     1.571009
      dz2     :     0.001545  d :     0.020485
      dxz     :     0.009264
      dyz     :     0.001174
      dx2y2   :     0.005712
      dxy     :     0.002790
  9 F s       :     3.714936  s :     3.714936
      pz      :     1.535249  p :     5.355910
      px      :     1.934370
      py      :     1.886290
      dz2     :     0.004765  d :     0.007369
      dxz     :     0.001184
      dyz     :     0.001375
      dx2y2   :     0.000037
      dxy     :     0.000009
 10 H s       :     0.842638  s :     0.842638
      pz      :     0.016677  p :     0.070393
      px      :     0.042290
      py      :     0.011426
 11 H s       :     0.843016  s :     0.843016
      pz      :     0.047834  p :     0.072448
      px      :     0.011209
      py      :     0.013404
 12 H s       :     0.826647  s :     0.826647
      pz      :     0.023098  p :     0.073226
      px      :     0.038719
      py      :     0.011409
 13 C s       :     2.858112  s :     2.858112
      pz      :     1.121714  p :     3.393364
      px      :     1.121571
      py      :     1.150079
      dz2     :     0.025867  d :     0.106882
      dxz     :     0.007415
      dyz     :     0.024024
      dx2y2   :     0.030205
      dxy     :     0.019370
 14 H s       :     0.927070  s :     0.927070
      pz      :     0.013806  p :     0.071739
      px      :     0.043061
      py      :     0.014872
 15 H s       :     0.927054  s :     0.927054
      pz      :     0.022496  p :     0.071983
      px      :     0.019038
      py      :     0.030449
 16 H s       :     0.927223  s :     0.927223
      pz      :     0.041042  p :     0.071770
      px      :     0.015450
      py      :     0.015278
 17 S s       :     5.612853  s :     5.612853
      pz      :     3.858809  p :    10.993949
      px      :     3.866112
      py      :     3.269027
      dz2     :     0.004913  d :     0.037154
      dxz     :     0.001243
      dyz     :     0.009368
      dx2y2   :     0.012853
      dxy     :     0.008778


                      *****************************
                      * MAYER POPULATION ANALYSIS *
                      *****************************

  NA   - Mulliken gross atomic population
  ZA   - Total nuclear charge
  QA   - Mulliken gross atomic charge
  VA   - Mayer's total valence
  BVA  - Mayer's bonded valence
  FA   - Mayer's free valence

  ATOM       NA         ZA         QA         VA         BVA        FA
  0 C      6.0385     6.0000    -0.0385     4.3308     4.3308    -0.0000
  1 N      7.2010     7.0000    -0.2010     2.7037     2.7037    -0.0000
  2 C      6.2948     6.0000    -0.2948     3.9672     3.9672    -0.0000
  3 C      6.2594     6.0000    -0.2594     4.3345     4.3345    -0.0000
  4 C      5.5446     6.0000     0.4554     4.1049     4.1049    -0.0000
  5 C      6.1261     6.0000    -0.1261     3.3651     3.3651    -0.0000
  6 N      7.0336     7.0000    -0.0336     3.8979     3.8979     0.0000
  7 O      8.0642     8.0000    -0.0642     2.2257     2.2257    -0.0000
  8 O      8.2360     8.0000    -0.2360     2.0157     2.0157     0.0000
  9 F      9.1030     9.0000    -0.1030     0.9627     0.9627     0.0000
 10 H      0.7044     1.0000     0.2956     0.8718     0.8718    -0.0000
 11 H      0.7188     1.0000     0.2812     0.9034     0.9034    -0.0000
 12 H      0.6744     1.0000     0.3256     0.8364     0.8364    -0.0000
 13 C      6.4118     6.0000    -0.4118     3.5784     3.5784    -0.0000
 14 H      0.8728     1.0000     0.1272     0.9417     0.9417     0.0000
 15 H      0.8727     1.0000     0.1273     0.9431     0.9431    -0.0000
 16 H      0.8725     1.0000     0.1275     0.9400     0.9400    -0.0000
 17 S     16.9715    16.0000    -0.9715     0.6036     0.6036     0.0000

  Mayer bond orders larger than 0.100000
B(  0-C ,  1-N ) :   1.2750 B(  0-C ,  2-C ) :   0.1884 B(  0-C ,  3-C ) :   0.1502 
B(  0-C ,  4-C ) :   0.2989 B(  0-C ,  5-C ) :   1.2281 B(  0-C ,  6-N ) :  -0.1918 
B(  0-C ,  9-F ) :   1.4124 B(  1-N ,  2-C ) :   1.1860 B(  1-N ,  5-C ) :   0.1909 
B(  2-C ,  3-C ) :   1.5802 B(  2-C , 10-H ) :   0.8853 B(  3-C ,  4-C ) :   1.4803 
B(  3-C ,  8-O ) :   0.1371 B(  3-C , 11-H ) :   0.8450 B(  4-C ,  5-C ) :   1.5457 
B(  4-C ,  6-N ) :  -0.1402 B(  4-C ,  8-O ) :   0.1723 B(  4-C ,  9-F ) :  -0.1203 
B(  4-C , 12-H ) :   0.7561 B(  5-C ,  6-N ) :   0.7411 B(  5-C ,  8-O ) :  -0.1554 
B(  5-C ,  9-F ) :  -0.3617 B(  5-C , 12-H ) :   0.1191 B(  6-N ,  7-O ) :   1.8590 
B(  6-N ,  8-O ) :   1.6570 B(  7-O ,  8-O ) :   0.2702 B( 13-C , 14-H ) :   0.9831 
[...]
 289   0.0000       5.121668       139.3677 
 290   0.0000       5.202365       141.5635 
 291   0.0000       5.266376       143.3054 
 292   0.0000       5.364862       145.9853 
 293   0.0000       5.833417       158.7353 
 294   0.0000       6.282889       170.9661 
 295   0.0000       6.422441       174.7635 
 296   0.0000       6.552182       178.2939 
 297   0.0000       6.864130       186.7825 
 298   0.0000       7.980402       217.1578 
 299   0.0000      17.547638       477.4955 
 300   0.0000      17.550981       477.5865 
 301   0.0000      17.644624       480.1346 
 302   0.0000      23.712109       645.2393 
 303   0.0000      23.963619       652.0832 
 304   0.0000      24.026403       653.7917 
 305   0.0000      24.030805       653.9115 
 306   0.0000      24.183401       658.0638 
 307   0.0000      24.295399       661.1114 
 308   0.0000      35.414920       963.6890 
 309   0.0000      35.735070       972.4007 
 310   0.0000      49.912013      1358.1749 
 311   0.0000      50.009587      1360.8301 
 312   0.0000      66.806612      1817.9003 
 313   0.0000     188.969675      5142.1263 

--------------------
FRAGMENT INFORMATION
--------------------
Fragment  1:    0   1   2   3   4   5 
Fragment  2:    6   7   8   9  10  11  12 
Fragment  3:   13  14  15  16 
Fragment  4:   17 


                    ********************************
                    * MULLIKEN POPULATION ANALYSIS *
                    ********************************

-------------------------
MULLIKEN FRAGMENT CHARGES
-------------------------
 Fragment   0 :  -0.436472
 Fragment   1 :   0.437683
 Fragment   2 :  -0.029864
 Fragment   3 :  -0.971347
Sum of fragment charges:   -1.0000000

---------------------------------
MULLIKEN FRAGMENT OVERLAP CHARGES
---------------------------------
                  0          1          2          3    
      0      15.915113   0.380232   0.000235  -0.002905
      1       0.380232  35.156973  -0.000198   0.005922
      2       0.000235  -0.000198  11.658005  -0.676625
      3      -0.002905   0.005922  -0.676625  17.308151

-----------------------
MULLIKEN ATOMIC CHARGES
-----------------------
   0 C :    0.026232
   1 N :   -0.187298
   2 C :   -0.306608
   3 C :   -0.310823
   4 C :    0.420121
   5 C :   -0.078095
   6 N :   -0.013300
   7 O :   -0.139564
   8 O :   -0.155204
   9 F :   -0.120301
  10 H :    0.286952
  11 H :    0.284411
  12 H :    0.294688
  13 C :   -0.411930
  14 H :    0.127270
  15 H :    0.127148
  16 H :    0.127647
  17 S :   -0.971347
Sum of atomic charges:   -1.0000000

--------------------------------
MULLIKEN REDUCED ORBITAL CHARGES
--------------------------------
  0 C s       :     3.204567  s :     3.204567
      pz      :     0.674696  p :     2.598550
      px      :     0.980500
      py      :     0.943354
      dz2     :     0.057359  d :     0.170651
      dxz     :     0.050874
      dyz     :     0.029378
      dx2y2   :     0.014606
      dxy     :     0.018434
  1 N s       :     3.607098  s :     3.607098
      pz      :     1.147255  p :     3.545623
      px      :     1.247186
      py      :     1.151182
      dz2     :     0.008789  d :     0.034578
      dxz     :     0.008540
      dyz     :     0.005098
      dx2y2   :     0.006190
      dxy     :     0.005961
  2 C s       :     3.337533  s :     3.337533
      pz      :     0.824963  p :     2.880702
      px      :     1.182559
      py      :     0.873179
      dz2     :     0.025187  d :     0.088373
      dxz     :     0.033026
      dyz     :     0.015630
      dx2y2   :     0.007953
      dxy     :     0.006577
  3 C s       :     3.238483  s :     3.238483
      pz      :     1.154769  p :     3.016220
      px      :     0.888433
      py      :     0.973018
      dz2     :     0.016048  d :     0.056119
      dxz     :     0.018795
      dyz     :     0.005837
      dx2y2   :     0.008048
      dxy     :     0.007392
  4 C s       :     2.520320  s :     2.520320
      pz      :     0.915836  p :     2.997078
      px      :     1.226115
      py      :     0.855127
      dz2     :     0.019074  d :     0.062481
      dxz     :     0.015005
      dyz     :     0.012252
      dx2y2   :     0.008928
      dxy     :     0.007221
  5 C s       :     3.275147  s :     3.275147
      pz      :     1.107656  p :     2.726924
      px      :     0.509042
      py      :     1.110226
      dz2     :     0.013578  d :     0.076025
      dxz     :     0.032228
      dyz     :     0.010812
      dx2y2   :     0.011312
      dxy     :     0.008095
  6 N s       :     3.491578  s :     3.491578
      pz      :     1.059747  p :     3.393588
      px      :     1.226752
      py      :     1.107089
      dz2     :     0.033865  d :     0.128133
      dxz     :     0.042967
      dyz     :     0.026323
      dx2y2   :     0.011232
      dxy     :     0.013746
  7 O s       :     3.802465  s :     3.802465
      pz      :     1.028949  p :     4.318833
      px      :     1.839907
      py      :     1.449977
      dz2     :     0.009692  d :     0.018266
      dxz     :     0.003303
      dyz     :     0.005088
      dx2y2   :     0.000109
      dxy     :     0.000073
  8 O s       :     3.794362  s :     3.794362
      pz      :     1.606944  p :     4.343481
      px      :     1.265921
      py      :     1.470616
      dz2     :     0.001829  d :     0.017361
      dxz     :     0.006367
      dyz     :     0.001453
      dx2y2   :     0.004155
      dxy     :     0.003556
  9 F s       :     3.918775  s :     3.918775
      pz      :     1.399595  p :     5.196296
      px      :     1.918712
      py      :     1.877988
      dz2     :     0.003047  d :     0.005230
      dxz     :     0.000972
      dyz     :     0.001172
      dx2y2   :     0.000030
      dxy     :     0.000010
 10 H s       :     0.689734  s :     0.689734
      pz      :     0.004506  p :     0.023313
      px      :     0.014511
      py      :     0.004296
 11 H s       :     0.690287  s :     0.690287
      pz      :     0.016489  p :     0.025302
      px      :     0.003800
      py      :     0.005012
 12 H s       :     0.676391  s :     0.676391
      pz      :     0.007622  p :     0.028921
      px      :     0.016019
      py      :     0.005281
 13 C s       :     3.271539  s :     3.271539
      pz      :     1.051407  p :     3.087767
      px      :     1.052176
      py      :     0.984185
      dz2     :     0.012925  d :     0.052624
      dxz     :     0.004104
      dyz     :     0.011738
      dx2y2   :     0.014582
      dxy     :     0.009275
 14 H s       :     0.850023  s :     0.850023
      pz      :     0.004722  p :     0.022707
      px      :     0.013283
      py      :     0.004702
 15 H s       :     0.850152  s :     0.850152
      pz      :     0.007335  p :     0.022700
      px      :     0.006214
      py      :     0.009151
 16 H s       :     0.849635  s :     0.849635
      pz      :     0.012648  p :     0.022718
      px      :     0.005243
      py      :     0.004828
 17 S s       :     6.016920  s :     6.016920
      pz      :     3.891411  p :    10.923023
      px      :     3.897654
      py      :     3.133958
      dz2     :     0.004129  d :     0.031404
      dxz     :     0.001136
      dyz     :     0.007970
      dx2y2   :     0.010544
      dxy     :     0.007625


                     *******************************
                     * LOEWDIN POPULATION ANALYSIS *
                     *******************************

------------------------
LOEWDIN FRAGMENT CHARGES
------------------------
 Fragment   0 :   0.058133
 Fragment   1 :  -0.059088
 Fragment   2 :  -0.355201
 Fragment   3 :  -0.643843

----------------------------
LOEWDIN FRAGMENT BOND ORDERS
----------------------------
                  0          1          2          3    
      0      57.151934   6.742255   0.000425   0.001598
      1       6.742255  44.126823   0.000175   0.000827
      2       0.000425   0.000175  15.418597   1.743641
      3       0.001598   0.000827   1.743641  16.643843

----------------------
LOEWDIN ATOMIC CHARGES
----------------------
   0 C :    0.085893
   1 N :   -0.079362
   2 C :    0.060547
   3 C :   -0.026465
   4 C :    0.077425
   5 C :   -0.059905
   6 N :    0.218901
   7 O :   -0.200414
   8 O :   -0.239673
   9 F :   -0.087971
  10 H :    0.083793
  11 H :    0.086894
  12 H :    0.079381
  13 C :   -0.358498
  14 H :    0.001103
  15 H :    0.001224
  16 H :    0.000970
  17 S :   -0.643843

-------------------------------
LOEWDIN REDUCED ORBITAL CHARGES
-------------------------------
  0 C s       :     2.730809  s :     2.730809
      pz      :     0.851375  p :     2.831590
      px      :     1.095928
      py      :     0.884287
      dz2     :     0.122250  d :     0.351707
      dxz     :     0.104629
      dyz     :     0.051923
      dx2y2   :     0.037356
      dxy     :     0.035549
  1 N s       :     3.111040  s :     3.111040
      pz      :     1.298737  p :     3.903464
      px      :     1.432657
      py      :     1.172071
      dz2     :     0.019046  d :     0.064858
      dxz     :     0.018118
      dyz     :     0.008859
      dx2y2   :     0.010937
      dxy     :     0.007898
  2 C s       :     2.774856  s :     2.774856
      pz      :     1.039630  p :     2.972543
      px      :     1.093070
      py      :     0.839843
      dz2     :     0.064000  d :     0.192054
      dxz     :     0.071990
      dyz     :     0.030092
      dx2y2   :     0.015229
      dxy     :     0.010743
  3 C s       :     2.770496  s :     2.770496
      pz      :     1.079307  p :     3.126617
      px      :     1.091288
      py      :     0.956022
      dz2     :     0.035278  d :     0.129352
      dxz     :     0.047737
      dyz     :     0.008916
      dx2y2   :     0.021986
      dxy     :     0.015435
  4 C s       :     2.749957  s :     2.749957
      pz      :     1.090311  p :     3.030448
      px      :     1.102825
      py      :     0.837312
      dz2     :     0.046519  d :     0.142170
      dxz     :     0.040052
      dyz     :     0.024912
      dx2y2   :     0.017846
      dxy     :     0.012840
  5 C s       :     2.745117  s :     2.745117
      pz      :     1.098572  p :     3.126534
      px      :     0.951038
      py      :     1.076924
      dz2     :     0.040603  d :     0.188254
      dxz     :     0.077786
      dyz     :     0.021154
      dx2y2   :     0.031572
      dxy     :     0.017139
  6 N s       :     3.014152  s :     3.014152
      pz      :     1.213149  p :     3.520617
      px      :     1.225260
      py      :     1.082208
      dz2     :     0.072624  d :     0.246330
      dxz     :     0.086282
      dyz     :     0.041239
      dx2y2   :     0.024016
      dxy     :     0.022169
  7 O s       :     3.575360  s :     3.575360
      pz      :     1.280148  p :     4.593249
      px      :     1.848630
      py      :     1.464471
      dz2     :     0.020353  d :     0.031805
      dxz     :     0.004939
      dyz     :     0.006301
      dx2y2   :     0.000134
      dxy     :     0.000078
  8 O s       :     3.584940  s :     3.584940
      pz      :     1.709890  p :     4.624430
      px      :     1.428119
      py      :     1.486421
      dz2     :     0.002779  d :     0.030302
      dxz     :     0.012833
      dyz     :     0.001973
      dx2y2   :     0.008101
      dxy     :     0.004616
  9 F s       :     3.713752  s :     3.713752
      pz      :     1.539956  p :     5.366960
      px      :     1.937665
      py      :     1.889340
      dz2     :     0.004696  d :     0.007258
      dxz     :     0.001169
      dyz     :     0.001343
      dx2y2   :     0.000040
      dxy     :     0.000009
 10 H s       :     0.847501  s :     0.847501
      pz      :     0.014078  p :     0.068706
      px      :     0.043033
      py      :     0.011595
 11 H s       :     0.840778  s :     0.840778
      pz      :     0.047622  p :     0.072328
      px      :     0.011283
      py      :     0.013422
 12 H s       :     0.837731  s :     0.837731
      pz      :     0.022031  p :     0.082888
      px      :     0.046860
      py      :     0.013997
 13 C s       :     2.858406  s :     2.858406
      pz      :     1.121746  p :     3.393232
      px      :     1.121780
      py      :     1.149705
      dz2     :     0.025826  d :     0.106860
      dxz     :     0.007397
      dyz     :     0.024118
      dx2y2   :     0.030462
      dxy     :     0.019057
 14 H s       :     0.927124  s :     0.927124
      pz      :     0.013797  p :     0.071774
      px      :     0.043170
      py      :     0.014806
 15 H s       :     0.926997  s :     0.926997
      pz      :     0.022447  p :     0.071779
      px      :     0.018730
      py      :     0.030603
 16 H s       :     0.927246  s :     0.927246
      pz      :     0.041016  p :     0.071784
      px      :     0.015490
      py      :     0.015278
 17 S s       :     5.612842  s :     5.612842
      pz      :     3.857430  p :    10.993840
      px      :     3.862078
      py      :     3.274333
      dz2     :     0.004884  d :     0.037161
      dxz     :     0.001313
      dyz     :     0.009392
      dx2y2   :     0.012598
      dxy     :     0.008974


                      *****************************
                      * MAYER POPULATION ANALYSIS *
                      *****************************

  NA   - Mulliken gross atomic population
  ZA   - Total nuclear charge
  QA   - Mulliken gross atomic charge
  VA   - Mayer's total valence
  BVA  - Mayer's bonded valence
  FA   - Mayer's free valence

  ATOM       NA         ZA         QA         VA         BVA        FA
  0 C      5.9738     6.0000     0.0262     4.2495     4.2495    -0.0000
  1 N      7.1873     7.0000    -0.1873     2.7302     2.7302    -0.0000
  2 C      6.3066     6.0000    -0.3066     4.0530     4.0530     0.0000
  3 C      6.3108     6.0000    -0.3108     4.4304     4.4304    -0.0000
  4 C      5.5799     6.0000     0.4201     4.2275     4.2275    -0.0000
  5 C      6.0781     6.0000    -0.0781     3.4191     3.4191    -0.0000
  6 N      7.0133     7.0000    -0.0133     3.9782     3.9782    -0.0000
  7 O      8.1396     8.0000    -0.1396     2.1552     2.1552    -0.0000
  8 O      8.1552     8.0000    -0.1552     2.1624     2.1624    -0.0000
  9 F      9.1203     9.0000    -0.1203     0.9273     0.9273    -0.0000
 10 H      0.7130     1.0000     0.2870     0.8716     0.8716     0.0000
 11 H      0.7156     1.0000     0.2844     0.9027     0.9027    -0.0000
 12 H      0.7053     1.0000     0.2947     0.8611     0.8611    -0.0000
 13 C      6.4119     6.0000    -0.4119     3.5784     3.5784     0.0000
 14 H      0.8727     1.0000     0.1273     0.9416     0.9416     0.0000
 15 H      0.8729     1.0000     0.1271     0.9432     0.9432    -0.0000
 16 H      0.8724     1.0000     0.1276     0.9399     0.9399    -0.0000
 17 S     16.9713    16.0000    -0.9713     0.6037     0.6037    -0.0000

  Mayer bond orders larger than 0.100000
B(  0-C ,  1-N ) :   1.2975 B(  0-C ,  2-C ) :   0.1659 B(  0-C ,  3-C ) :   0.1892 
B(  0-C ,  4-C ) :   0.2923 B(  0-C ,  5-C ) :   1.1795 B(  0-C ,  6-N ) :  -0.1791 
B(  0-C ,  8-O ) :  -0.1051 B(  0-C ,  9-F ) :   1.3698 B(  1-N ,  2-C ) :   1.1510 
B(  1-N ,  5-C ) :   0.2145 B(  2-C ,  3-C ) :   1.6855 B(  2-C ,  5-C ) :   0.1149 
B(  2-C , 10-H ) :   0.8843 B(  3-C ,  4-C ) :   1.4093 B(  3-C ,  8-O ) :   0.1477 
B(  3-C , 11-H ) :   0.8387 B(  4-C ,  5-C ) :   1.6913 B(  4-C ,  6-N ) :  -0.1190 
B(  4-C ,  8-O ) :   0.2535 B(  4-C ,  9-F ) :  -0.1477 B(  4-C , 12-H ) :   0.7433 
B(  5-C ,  6-N ) :   0.6953 B(  5-C ,  8-O ) :  -0.2263 B(  5-C ,  9-F ) :  -0.3276 
B(  5-C , 12-H ) :   0.1359 B(  6-N ,  7-O ) :   1.8260 B(  6-N ,  8-O ) :   1.8093 
B(  7-O ,  8-O ) :   0.2609 B( 13-C , 14-H ) :   0.9829 B( 13-C , 15-H ) :   0.9810 
B( 13-C , 16-H ) :   0.9828 B( 13-C , 17-S ) :   0.6323 

-------
TIMINGS
-------

Total SCF time: 0 days 0 hours 0 min 13 sec 

Total time                  ....      13.588 sec
Sum of individual times     ....      12.710 sec  ( 93.5%)

Fock matrix formation       ....      10.702 sec  ( 78.8%)
  Split-RI-J                ....       0.645 sec  (  6.0% of F)
  Chain of spheres X        ....       8.262 sec  ( 77.2% of F)
  XC integration            ....       0.864 sec  (  8.1% of F)
    Basis function eval.    ....       0.082 sec  (  9.5% of XC)
    Density eval.           ....       0.118 sec  ( 13.7% of XC)
    XC-Functional eval.     ....       0.067 sec  (  7.7% of XC)
    XC-Potential eval.      ....       0.062 sec  (  7.2% of XC)
Diagonalization             ....       0.026 sec  (  0.2%)
Density matrix formation    ....       0.011 sec  (  0.1%)
Population analysis         ....       0.053 sec  (  0.4%)
Initial guess               ....       0.040 sec  (  0.3%)
Orbital Transformation      ....       0.000 sec  (  0.0%)
Orbital Orthonormalization  ....       0.019 sec  (  0.1%)
DIIS solution               ....       0.011 sec  (  0.1%)
SOSCF solution              ....       0.228 sec  (  1.7%)
Grid generation             ....       1.640 sec  ( 12.1%)

Maximum memory used throughout the entire SCF-calculation: 68.6 MB

-------------------------   --------------------
FINAL SINGLE POINT ENERGY      -990.257276234281
-------------------------   --------------------

                                *** OPTIMIZATION RUN DONE ***

                            ***************************************
                            *     ORCA property calculations      *
                            ***************************************

                                    ---------------------
                                    Active property flags
                                    ---------------------
   (+) Dipole Moment


------------------------------------------------------------------------------
                       ORCA ELECTRIC PROPERTIES CALCULATION
------------------------------------------------------------------------------

Dipole Moment Calculation                       ... on
Quadrupole Moment Calculation                   ... off
Polarizability Calculation                      ... off
GBWName                                         ... structure_opt.gbw
Electron density                                ... structure_opt.scfp
The origin for moment calculation is the CENTER OF MASS  = (-2.310909,  3.445045  4.514638)

-------------
DIPOLE MOMENT
-------------
                                X             Y             Z
Electronic contribution:      4.33833     -22.69127      -6.30069
Nuclear contribution   :     -1.53104      14.49936       9.69928
                        -----------------------------------------
Total Dipole Moment    :      2.80729      -8.19190       3.39860
                        -----------------------------------------
Magnitude (a.u.)       :      9.30261
Magnitude (Debye)      :     23.64536



--------------------
Rotational spectrum 
--------------------
 
Rotational constants in cm-1:     0.029974     0.008686     0.008095 
Rotational constants in MHz :   898.608049   260.385878   242.695262 

 Dipole components along the rotational axes: 
x,y,z [a.u.] :    -8.723494    -2.187620     2.377727 
x,y,z [Debye]:   -22.173360    -5.560488     6.043701 

 

Timings for individual modules:

Sum of individual times         ...      951.912 sec (=  15.865 min)
GTO integral calculation        ...       50.245 sec (=   0.837 min)   5.3 %
SCF iterations                  ...      738.016 sec (=  12.300 min)  77.5 %
SCF Gradient evaluation         ...      162.453 sec (=   2.708 min)  17.1 %
Geometry relaxation             ...        1.197 sec (=   0.020 min)   0.1 %
                             ****ORCA TERMINATED NORMALLY****
TOTAL RUN TIME: 0 days 0 hours 16 minutes 49 seconds 919 msec
