
                                 *****************
                                 * O   R   C   A *
                                 *****************

                                            #,                                       
                                            ###                                      
                                            ####                                     
                                            #####                                    
                                            ######                                   
                                           ########,                                 
                                     ,,################,,,,,                         
                               ,,#################################,,                 
                          ,,##########################################,,             
                       ,#########################################, ''#####,          
                    ,#############################################,,   '####,        
                  ,##################################################,,,,####,       
                ,###########''''           ''''###############################       
              ,#####''   ,,,,##########,,,,          '''####'''          '####       
            ,##' ,,,,###########################,,,                        '##       
           ' ,,###''''                  '''############,,,                           
         ,,##''                                '''############,,,,        ,,,,,,###''
      ,#''                                            '''#######################'''  
     '                                                          ''''####''''         
             ,#######,   #######,   ,#######,      ##                                
            ,#'     '#,  ##    ##  ,#'     '#,    #''#        ######   ,####,        
            ##       ##  ##   ,#'  ##            #'  '#       #        #'  '#        
            ##       ##  #######   ##           ,######,      #####,   #    #        
            '#,     ,#'  ##    ##  '#,     ,#' ,#      #,         ##   #,  ,#        
             '#######'   ##     ##  '#######'  #'      '#     #####' # '####'        



                  #######################################################
                  #                        -***-                        #
                  #          Department of theory and spectroscopy      #
                  #    Directorship and core code : Frank Neese         #
                  #        Max Planck Institute fuer Kohlenforschung    #
                  #                Kaiser Wilhelm Platz 1               #
                  #                 D-45470 Muelheim/Ruhr               #
                  #                      Germany                        #
                  #                                                     #
                  #                  All rights reserved                #
                  #                        -***-                        #
                  #######################################################


                         Program Version 5.0.4 -  RELEASE  -


 With contributions from (in alphabetic order):
   Daniel Aravena         : Magnetic Suceptibility
   Michael Atanasov       : Ab Initio Ligand Field Theory (pilot matlab implementation)
   Alexander A. Auer      : GIAO ZORA, VPT2 properties, NMR spectrum
   Ute Becker             : Parallelization
   Giovanni Bistoni       : ED, misc. LED, open-shell LED, HFLD
   Martin Brehm           : Molecular dynamics
   Dmytro Bykov           : SCF Hessian
   Vijay G. Chilkuri      : MRCI spin determinant printing, contributions to CSF-ICE
   Dipayan Datta          : RHF DLPNO-CCSD density
   Achintya Kumar Dutta   : EOM-CC, STEOM-CC
   Dmitry Ganyushin       : Spin-Orbit,Spin-Spin,Magnetic field MRCI
   Miquel Garcia          : C-PCM and meta-GGA Hessian, CC/C-PCM, Gaussian charge scheme
   Yang Guo               : DLPNO-NEVPT2, F12-NEVPT2, CIM, IAO-localization
   Andreas Hansen         : Spin unrestricted coupled pair/coupled cluster methods
   Benjamin Helmich-Paris : MC-RPA, TRAH-SCF, COSX integrals
   Lee Huntington         : MR-EOM, pCC
   Robert Izsak           : Overlap fitted RIJCOSX, COSX-SCS-MP3, EOM
   Marcus Kettner         : VPT2
   Christian Kollmar      : KDIIS, OOCD, Brueckner-CCSD(T), CCSD density, CASPT2, CASPT2-K
   Simone Kossmann        : Meta GGA functionals, TD-DFT gradient, OOMP2, MP2 Hessian
   Martin Krupicka        : Initial AUTO-CI
   Lucas Lang             : DCDCAS
   Marvin Lechner         : AUTO-CI (C++ implementation), FIC-MRCC
   Dagmar Lenk            : GEPOL surface, SMD
   Dimitrios Liakos       : Extrapolation schemes; Compound Job, initial MDCI parallelization
   Dimitrios Manganas     : Further ROCIS development; embedding schemes
   Dimitrios Pantazis     : SARC Basis sets
   Anastasios Papadopoulos: AUTO-CI, single reference methods and gradients
   Taras Petrenko         : DFT Hessian,TD-DFT gradient, ASA, ECA, R-Raman, ABS, FL, XAS/XES, NRVS
   Peter Pinski           : DLPNO-MP2, DLPNO-MP2 Gradient
   Christoph Reimann      : Effective Core Potentials
   Marius Retegan         : Local ZFS, SOC
   Christoph Riplinger    : Optimizer, TS searches, QM/MM, DLPNO-CCSD(T), (RO)-DLPNO pert. Triples
   Tobias Risthaus        : Range-separated hybrids, TD-DFT gradient, RPA, STAB
   Michael Roemelt        : Original ROCIS implementation
   Masaaki Saitow         : Open-shell DLPNO-CCSD energy and density
   Barbara Sandhoefer     : DKH picture change effects
   Avijit Sen             : IP-ROCIS
   Kantharuban Sivalingam : CASSCF convergence, NEVPT2, FIC-MRCI
   Bernardo de Souza      : ESD, SOC TD-DFT
   Georgi Stoychev        : AutoAux, RI-MP2 NMR, DLPNO-MP2 response
   Willem Van den Heuvel  : Paramagnetic NMR
   Boris Wezisla          : Elementary symmetry handling
   Frank Wennmohs         : Technical directorship


 We gratefully acknowledge several colleagues who have allowed us to
 interface, adapt or use parts of their codes:
   Stefan Grimme, W. Hujo, H. Kruse, P. Pracht,  : VdW corrections, initial TS optimization,
                  C. Bannwarth, S. Ehlert          DFT functionals, gCP, sTDA/sTD-DF
   Ed Valeev, F. Pavosevic, A. Kumar             : LibInt (2-el integral package), F12 methods
   Garnet Chan, S. Sharma, J. Yang, R. Olivares  : DMRG
   Ulf Ekstrom                                   : XCFun DFT Library
   Mihaly Kallay                                 : mrcc  (arbitrary order and MRCC methods)
   Jiri Pittner, Ondrej Demel                    : Mk-CCSD
   Frank Weinhold                                : gennbo (NPA and NBO analysis)
   Christopher J. Cramer and Donald G. Truhlar   : smd solvation model
   Lars Goerigk                                  : TD-DFT with DH, B97 family of functionals
   V. Asgeirsson, H. Jonsson                     : NEB implementation
   FAccTs GmbH                                   : IRC, NEB, NEB-TS, DLPNO-Multilevel, CI-OPT
                                                   MM, QMMM, 2- and 3-layer-ONIOM, Crystal-QMMM,
                                                   LR-CPCM, SF, NACMEs, symmetry and pop. for TD-DFT,
                                                   nearIR, NL-DFT gradient (VV10), updates on ESD,
                                                   ML-optimized integration grids
   S Lehtola, MJT Oliveira, MAL Marques          : LibXC Library
   Liviu Ungur et al                             : ANISO software


 Your calculation uses the libint2 library for the computation of 2-el integrals
 For citations please refer to: http://libint.valeyev.net

 Your ORCA version has been built with support for libXC version: 5.1.0
 For citations please refer to: https://tddft.org/programs/libxc/

 This ORCA versions uses:
   CBLAS   interface :  Fast vector & matrix operations
   LAPACKE interface :  Fast linear algebra routines
   SCALAPACK package :  Parallel linear algebra routines
   Shared memory     :  Shared parallel matrices
   BLAS/LAPACK       :  OpenBLAS 0.3.15  USE64BITINT DYNAMIC_ARCH NO_AFFINITY SkylakeX SINGLE_THREADED
        Core in use  :  SkylakeX
   Copyright (c) 2011-2014, The OpenBLAS Project




***************************************
The coordinates will be read from file: reactants.xyz
***************************************


Your calculation utilizes the SMD solvation module
Please cite in your paper:
A.V. Marenich, C.J. Cramer, D.G. Truhlar J. Phys. Chem. B, 113, (2009), 6378 

XCFun DFT library Copyright 2009-2010 Ulf Ekstrom and contributors.
See http://admol.org/xcfun for more information.
This is free software; see the source code for copying conditions.
There is ABSOLUTELY NO WARRANTY; not even for MERCHANTABILITY or FITNESS FOR A PARTICULAR PURPOSE.
For details see the documentation.
Scientific users of this library should cite U. Ekstrom, L. Visscher, R. Bast, A. J. Thorvaldsen and K. Ruud;
J.Chem.Theor.Comp. 2010, DOI: 10.1021/ct100117s
XCFun Version 0.99 

================================================================================

----- Orbital basis set information -----
Your calculation utilizes the basis: 6-311++G**
   H, Li - Ne  : R. Krishnan, J. S. Binkley, R. Seeger and J. A. Pople, J. Chem. Phys. 72, 650 (1980).
   Na - Ar     : A. D. McLean and G. S. Chandler J. Chem. Phys. 72, 5639, (1980).
   K  - Ca     : J.-P. Blaudeau, M. P. McGrath, L. A. Curtiss and L. Radom, J. Chem. Phys. 107, 5016 (1997).
   Ga - Kr     : L. A. Curtiss, M. P. McGrath, J.-P. Blandeau, N. E. Davis, R. C. Binning and L. Radom, J. Chem. Phys. 103, 6104 (1995).
   Pol./Diff.
   H, Li - Cl  : T. Clark, J. Chandrasekhar and P. v. R. Schleyer, J. Comp. Chem. 4, 294 (1983).
   H - Ne      : M. J. Frisch, J. A. Pople and J. S. Binkley, J. Chem. Phys. 80, 3265 (1984).

----- AuxJ basis set information -----
Your calculation utilizes the auxiliary basis: def2/J
   F. Weigend, Phys. Chem. Chem. Phys. 8, 1057 (2006).

================================================================================
                                        WARNINGS
                       Please study these warnings very carefully!
================================================================================


WARNING: Geometry Optimization
  ===> : Switching off AutoStart
         For restart on a previous wavefunction, please use MOREAD

INFO   : the flag for use of the SHARK integral package has been found!

================================================================================
                                       INPUT FILE
================================================================================
NAME = structure_opt.inp
|  1> !wb97x 6-311++G** OPT CPCM(WATER)
|  2> %maxcore  3500
|  3> %pal
|  4> nprocs 24
|  5> end
|  6> %cpcm
|  7> smd true
|  8> SMDsolvent "water"
|  9> end
| 10> %geom
| 11> ConstrainFragments {1} end
| 12> ConstrainFragments {4} end
| 13> ConnectFragments
| 14> { 1 2 C 5 7 }
| 15> { 1 2 C 0 9 }
| 16> { 2 3 C 13 5 }
| 17> { 3 4 C 13 17 }
| 18> end
| 19> end
| 20> * XYZfile -1 1 reactants.xyz
| 21> %geom
| 22> Fragments
| 23> 1 {0:5} end
| 24> 2 {6:12} end
| 25> 3 {13:16} end
| 26> 4 {17} end
| 27> end
| 28> end
| 29> 
| 30>                          ****END OF INPUT****
================================================================================

                       *****************************
                       * Geometry Optimization Run *
                       *****************************

Geometry optimization settings:
Update method            Update   .... BFGS
Choice of coordinates    CoordSys .... Z-matrix Internals
Initial Hessian          InHess   .... Almoef's Model

Convergence Tolerances:
Energy Change            TolE     ....  5.0000e-06 Eh
Max. Gradient            TolMAXG  ....  3.0000e-04 Eh/bohr
RMS Gradient             TolRMSG  ....  1.0000e-04 Eh/bohr
Max. Displacement        TolMAXD  ....  4.0000e-03 bohr
RMS Displacement         TolRMSD  ....  2.0000e-03 bohr
Strict Convergence                ....  False
------------------------------------------------------------------------------
                        ORCA OPTIMIZATION COORDINATE SETUP
------------------------------------------------------------------------------

The optimization will be done in new redundant internal coordinates
Making redundant internal coordinates   ...  (new redundants) done
Evaluating the initial hessian          ...  (Almloef) done
Evaluating the coordinates              ...  done
Calculating the B-matrix                .... done
Calculating the G-matrix                .... done
Diagonalizing the G-matrix              .... done
Imposing constraints:
 Iter   0:  RMS(Cart)=    0.0000000000 RMS(Int)=    0.0000000000
CONVERGED
Small eigenvalue found = 8.103e-03
Small eigenvalue found = 9.617e-03
Small eigenvalue found = 2.396e-02
The first mode is                       ....   62
The number of degrees of freedom        ....   48
Storing new coordinates                 .... done

    -----------------------------------------------------------------
                    Redundant Internal Coordinates


    -----------------------------------------------------------------
         Definition                    Initial Value    Approx d2E/dq
    -----------------------------------------------------------------
      1. B(N   1,C   0)                  1.3611         0.622347   
      2. B(C   2,N   1)                  1.3582         0.628875   
      3. B(C   3,C   2)                  1.3949         0.613658   
      4. B(C   4,C   3)                  1.3934         0.616971   
      5. B(C   5,C   0)                  1.4122         0.575774   
      6. B(C   5,C   4)                  1.4061         0.588917   
      7. B(O   7,C   5)                  2.3435         0.016853 C 
      8. B(O   7,N   6)                  1.2480         0.844503   
      9. B(O   8,N   6)                  1.3769         0.525866   
     10. B(F   9,C   0)                  1.3500         0.602260 C 
     11. B(F   9,N   6)                  2.8678         0.002044   
     12. B(F   9,O   7)                  2.5821         0.005837   
     13. B(H  11,H  10)                  2.4818         0.000415   
     14. B(H  12,O   8)                  2.5152         0.001717   
     15. B(H  12,H  11)                  2.4663         0.000439   
     16. B(H  12,N   6)                  2.7029         0.000861   
     17. B(C  13,H  11)                  5.3503         0.000000 C 
     18. B(H  14,C  13)                  1.0940         0.354892   
     19. B(H  15,C  13)                  1.0928         0.356453   
     20. B(H  16,C  13)                  1.0933         0.355797   
     21. B(S  17,C  13)                  1.8034         0.368909 C 
     22. A(N   1,C   0,F   9)          118.6704         0.424592 C 
     23. A(C   5,C   0,F   9)          121.1725         0.421471 C 
     24. A(N   1,C   0,C   5)          120.1571         0.425830   
     25. A(C   0,N   1,C   2)          121.9524         0.429796   
     26. A(N   1,C   2,C   3)          120.0262         0.431531   
     27. A(C   2,C   3,C   4)          119.3498         0.432882   
     28. A(C   3,C   4,C   5)          120.4718         0.429694   
     29. A(C   4,C   5,O   7)          147.4261         0.238582 C 
     30. A(C   0,C   5,O   7)           94.5313         0.237820 C 
     31. A(C   0,C   5,C   4)          118.0425         0.424407   
     32. A(O   8,N   6,H  12)           67.2752         0.152046   
     33. A(O   7,N   6,H  12)          174.2234         0.159181   
     34. A(O   7,N   6,F   9)           64.2090         0.186619   
     35. A(F   9,N   6,H  12)          110.0144         0.106848   
     36. A(O   7,N   6,O   8)          118.5014         0.433822   
     37. A(N   6,O   7,F   9)           89.9947         0.212791   
     38. A(C   5,O   7,N   6)           31.7456         0.248611 C 
     39. A(C   5,O   7,F   9)           58.2491         0.140475 C 
     40. A(N   6,O   8,H  12)           82.3972         0.162696   
     41. A(N   6,F   9,O   7)           25.7962         0.120482   
     42. A(C   0,F   9,O   7)           86.0471         0.203997 C 
     43. A(C   0,F   9,N   6)           60.2509         0.179684 C 
     44. A(H  10,H  11,C  13)           93.0859         0.090010 C 
     45. A(H  10,H  11,H  12)          119.7063         0.095112   
     46. A(H  12,H  11,C  13)          102.8980         0.090023 C 
     47. A(N   6,H  12,O   8)           30.3275         0.103999   
     48. A(N   6,H  12,H  11)          126.7169         0.097913   
     49. A(O   8,H  12,H  11)          157.0445         0.099419   
     50. A(H  14,C  13,H  15)          109.0628         0.289712   
     51. A(H  14,C  13,H  16)          108.9506         0.289628   
     52. A(H  15,C  13,H  16)          109.0315         0.289828   
     53. A(H  11,C  13,H  14)           96.6477         0.094823 C 
     54. A(H  11,C  13,S  17)           38.3470         0.096269   
     55. A(H  11,C  13,H  15)           81.7408         0.094829 C 
     56. A(H  11,C  13,H  16)          146.1742         0.094826 C 
     57. A(H  14,C  13,S  17)          109.9468         0.339297 C 
     58. A(H  15,C  13,S  17)          109.9433         0.339546 C 
     59. A(H  16,C  13,S  17)          109.8810         0.339441 C 
     60. D(C   2,N   1,C   0,C   5)     -0.1041         0.028432   
     61. D(C   2,N   1,C   0,F   9)    179.9112         0.028432 C 
     62. D(C   3,C   2,N   1,C   0)      0.1066         0.025783   
     63. D(C   4,C   3,C   2,N   1)     -0.0956         0.020965   
     64. D(C   5,C   4,C   3,C   2)      0.0854         0.021202   
     65. D(C   4,C   5,C   0,N   1)      0.0896         0.022761   
     66. D(C   0,C   5,C   4,C   3)     -0.0818         0.021656   
     67. D(O   7,C   5,C   4,C   3)   -179.9036         0.021656 C 
     68. D(O   7,C   5,C   0,F   9)     -0.0223         0.022761 C 
     69. D(C   4,C   5,C   0,F   9)   -179.9260         0.022761 C 
     70. D(O   7,C   5,C   0,N   1)    179.9933         0.022761 C 
     71. D(F   9,O   7,C   5,C   0)      0.0117         0.001517 C 
     72. D(C   5,O   7,N   6,H  12)      0.1876         0.079747 C 
     73. D(N   6,O   7,C   5,C   0)   -179.9521         0.001517 C 
     74. D(F   9,O   7,C   5,C   4)    179.8539         0.001517 C 
     75. D(F   9,O   7,N   6,O   8)    179.9932         0.079747   
     76. D(F   9,O   7,N   6,H  12)      0.1568         0.079747   
     77. D(C   5,O   7,N   6,O   8)   -179.9761         0.079747 C 
     78. D(N   6,O   7,C   5,C   4)     -0.1099         0.001517 C 
     79. D(C   5,O   7,N   6,F   9)      0.0308         0.079747 C 
     80. D(H  12,O   8,N   6,O   7)   -179.9821         0.025649   
     81. D(C   0,F   9,O   7,C   5)     -0.0123         0.001503 C 
     82. D(N   6,F   9,C   0,N   1)   -179.9918         0.032536 C 
     83. D(N   6,F   9,C   0,C   5)      0.0236         0.032536 C 
     84. D(O   7,F   9,C   0,N   1)   -179.9952         0.032536 C 
     85. D(O   7,F   9,N   6,H  12)   -179.9832         0.001500   
     86. D(C   0,F   9,N   6,H  12)      0.0246         0.001500 C 
     87. D(N   6,F   9,O   7,C   5)     -0.0190         0.001503 C 
     88. D(C   0,F   9,O   7,N   6)      0.0068         0.001503 C 
     89. D(O   7,F   9,C   0,C   5)      0.0202         0.032536 C 
     90. D(C   0,F   9,N   6,O   7)   -179.9922         0.001500 C 
     91. D(O   7,F   9,O   8,H  12)   -179.9897         0.001500   
     92. D(C   0,F   9,O   8,H  12)      0.0232         0.001500 C 
     93. D(O   8,H  12,H  11,C  13)    101.2709         0.001502 C 
     94. D(O   8,H  12,N   6,F   9)    179.9943         0.001501   
     95. D(H  11,H  12,N   6,O   7)     -0.1748         0.001501   
     96. D(H  11,H  12,N   6,O   8)    179.9811         0.001501   
     97. D(H  11,H  12,N   6,F   9)     -0.0245         0.001501   
     98. D(H  11,H  12,O   8,N   6)     -0.0388         0.001502   
     99. D(N   6,H  12,H  11,H  10)      0.0466         0.001502   
    100. D(N   6,H  12,H  11,C  13)    101.2464         0.001502 C 
    101. D(O   8,H  12,N   6,O   7)    179.8441         0.001501   
    102. D(O   8,H  12,H  11,H  10)      0.0710         0.001502   
    103. D(H  14,C  13,H  11,H  12)   -177.4467         0.001500 C 
    104. D(H  14,C  13,H  11,H  10)    -56.0162         0.001500 C 
    105. D(H  15,C  13,H  11,H  12)     74.1718         0.001500 C 
    106. D(H  15,C  13,H  11,H  10)   -164.3977         0.001500 C 
    107. D(H  16,C  13,H  11,H  12)    -37.8711         0.001500 C 
    108. D(H  16,C  13,H  11,H  10)     83.5594         0.001500 C 
    109. D(S  17,C  13,H  11,H  12)    -63.4768         0.001500   
    110. D(S  17,C  13,H  11,H  10)     57.9538         0.001500   
    -----------------------------------------------------------------

Number of atoms                         .... 18
Number of degrees of freedom            .... 110

         *************************************************************
         *                GEOMETRY OPTIMIZATION CYCLE   1            *
         *************************************************************
---------------------------------
CARTESIAN COORDINATES (ANGSTROEM)
---------------------------------
  C      0.000000    0.000000    1.820000
  N      1.178000   -0.196000    2.473000
  C      1.255000   -0.207000    3.829000
  C      0.105000   -0.016000    4.595000
  C     -1.116000    0.187000    3.955000
  C     -1.192000    0.198000    2.551000
  N     -2.456000    0.409000    1.893000
  O     -2.541000    0.423000    0.648000
  O     -3.602000    0.600000    2.632000
  F      0.000000    0.000000    0.470000
  H      2.209000   -0.366000    4.313000
  H      0.163000   -0.026000    5.676000
  H     -2.005000    0.335000    4.557000
  C      1.599000    4.921000    7.122000
  H      2.568000    4.651000    7.552000
  H      0.819000    4.759000    7.870000
  H      1.615000    5.979000    6.847000
  S      1.271000    3.913000    5.663000

----------------------------
CARTESIAN COORDINATES (A.U.)
----------------------------
  NO LB      ZA    FRAG     MASS         X           Y           Z
   0 C     6.0000    1    12.011    0.000000    0.000000    3.439302
   1 N     7.0000    1    14.007    2.226097   -0.370386    4.673293
   2 C     6.0000    1    12.011    2.371606   -0.391173    7.235761
   3 C     6.0000    1    12.011    0.198421   -0.030236    8.683292
   4 C     6.0000    1    12.011   -2.108934    0.353379    7.473867
   5 C     6.0000    1    12.011   -2.252554    0.374166    4.820691
   6 N     7.0000    2    14.007   -4.641167    0.772898    3.577252
   7 O     8.0000    2    15.999   -4.801794    0.799354    1.224543
   8 O     8.0000    2    15.999   -6.806794    1.133836    4.973759
   9 F     9.0000    2    18.998    0.000000    0.000000    0.888171
  10 H     1.0000    2     1.008    4.174405   -0.691640    8.150389
  11 H     1.0000    2     1.008    0.308025   -0.049133   10.726086
  12 H     1.0000    2     1.008   -3.788901    0.633058    8.611482
  13 C     6.0000    3    12.011    3.021672    9.299342   13.458630
  14 H     1.0000    3     1.008    4.852817    8.789116   14.271212
  15 H     1.0000    3     1.008    1.547686    8.993207   14.872145
  16 H     1.0000    3     1.008    3.051908   11.298673   12.938955
  17 S    16.0000    4    32.060    2.401842    7.394498   10.701519

----------------------------------------------
CARTESIAN COORDINATES OF FRAGMENTS (ANGSTROEM)
----------------------------------------------

 FRAGMENT 1 
  C     0.000000    0.000000    1.820000
  N     1.178000   -0.196000    2.473000
  C     1.255000   -0.207000    3.829000
  C     0.105000   -0.016000    4.595000
  C    -1.116000    0.187000    3.955000
  C    -1.192000    0.198000    2.551000

 FRAGMENT 2 
  N    -2.456000    0.409000    1.893000
  O    -2.541000    0.423000    0.648000
  O    -3.602000    0.600000    2.632000
  F     0.000000    0.000000    0.470000
  H     2.209000   -0.366000    4.313000
  H     0.163000   -0.026000    5.676000
  H    -2.005000    0.335000    4.557000

 FRAGMENT 3 
  C     1.599000    4.921000    7.122000
  H     2.568000    4.651000    7.552000
  H     0.819000    4.759000    7.870000
  H     1.615000    5.979000    6.847000

 FRAGMENT 4 
  S     1.271000    3.913000    5.663000

--------------------------------
INTERNAL COORDINATES (ANGSTROEM)
--------------------------------
 C      0   0   0     0.000000000000     0.00000000     0.00000000
 N      1   0   0     1.361069065110     0.00000000     0.00000000
 C      2   1   0     1.358228993948   121.95243626     0.00000000
 C      3   2   1     1.394896770374   120.02620694     0.10655554
 C      4   3   2     1.393431017309   119.34983770   359.90435571
 C      5   4   3     1.406098502951   120.47178172     0.08537773
 N      6   5   4     1.440548853736   120.30882193   180.03842131
 O      7   6   5     1.247976762604   121.13704526   179.93147861
 O      7   6   5     1.376923382037   120.36156660   359.90709941
 F      1   2   3     1.350000000000   118.67037638   179.91115691
 H      3   2   1     1.081504969938   119.86701156   179.98746005
 H      4   3   2     1.082601034546   120.19197482   179.89186186
 H      5   4   3     1.083803026384   118.91636700   180.02085854
 C     12   4   3     5.350310364829   106.00394233    84.13464131
 H     14  12   4     1.093965721584    96.64770132   244.54928440
 H     14  12   4     1.092770790239    81.74076100   136.16775996
 H     14  12   4     1.093272610102   146.17421019    24.12492032
 S     14  12   4     1.803421470428    38.34695047   358.51925258

---------------------------
INTERNAL COORDINATES (A.U.)
---------------------------
 C      0   0   0     0.000000000000     0.00000000     0.00000000
 N      1   0   0     2.572047782411     0.00000000     0.00000000
 C      2   1   0     2.566680825712   121.95243626     0.00000000
 C      3   2   1     2.635972881098   120.02620694     0.10655554
 C      4   3   2     2.633203009226   119.34983770   359.90435571
 C      5   4   3     2.657141087893   120.47178172     0.08537773
 N      6   5   4     2.722242816095   120.30882193   180.03842131
 O      7   6   5     2.358334302820   121.13704526   179.93147861
 O      7   6   5     2.602008099442   120.36156660   359.90709941
 F      1   2   3     2.551130280794   118.67037638   179.91115691
 H      3   2   1     2.043748205657   119.86701156   179.98746005
 H      4   3   2     2.045819467592   120.19197482   179.89186186
 H      5   4   3     2.048090902982   118.91636700   180.02085854
 C     12   4   3    10.110621321008   106.00394233    84.13464131
 H     14  12   4     2.067295613691    96.64770132   244.54928440
 H     14  12   4     2.065037520701    81.74076100   136.16775996
 H     14  12   4     2.065985822811   146.17421019    24.12492032
 S     14  12   4     3.407972683142    38.34695047   358.51925258

---------------------
BASIS SET INFORMATION
---------------------
There are 6 groups of distinct atoms

 Group   1 Type C   : 12s6p1d contracted to 5s4p1d pattern {63111/3111/1}
 Group   2 Type N   : 12s6p1d contracted to 5s4p1d pattern {63111/3111/1}
 Group   3 Type O   : 12s6p1d contracted to 5s4p1d pattern {63111/3111/1}
 Group   4 Type F   : 12s6p1d contracted to 5s4p1d pattern {63111/3111/1}
 Group   5 Type H   : 6s1p contracted to 4s1p pattern {3111/1}
 Group   6 Type S   : 14s10p1d contracted to 7s6p1d pattern {6311111/421111/1}

Atom   0C    basis set group =>   1
Atom   1N    basis set group =>   2
Atom   2C    basis set group =>   1
Atom   3C    basis set group =>   1
Atom   4C    basis set group =>   1
Atom   5C    basis set group =>   1
Atom   6N    basis set group =>   2
Atom   7O    basis set group =>   3
Atom   8O    basis set group =>   3
Atom   9F    basis set group =>   4
Atom  10H    basis set group =>   5
Atom  11H    basis set group =>   5
Atom  12H    basis set group =>   5
Atom  13C    basis set group =>   1
Atom  14H    basis set group =>   5
Atom  15H    basis set group =>   5
Atom  16H    basis set group =>   5
Atom  17S    basis set group =>   6
---------------------------------
AUXILIARY/J BASIS SET INFORMATION
---------------------------------
There are 6 groups of distinct atoms

 Group   1 Type C   : 12s5p4d2f1g contracted to 6s4p3d1f1g pattern {711111/2111/211/2/1}
 Group   2 Type N   : 12s5p4d2f1g contracted to 6s4p3d1f1g pattern {711111/2111/211/2/1}
 Group   3 Type O   : 12s5p4d2f1g contracted to 6s4p3d1f1g pattern {711111/2111/211/2/1}
 Group   4 Type F   : 12s5p4d2f1g contracted to 6s4p3d1f1g pattern {711111/2111/211/2/1}
 Group   5 Type H   : 5s2p1d contracted to 3s1p1d pattern {311/2/1}
 Group   6 Type S   : 14s5p5d2f1g contracted to 8s4p3d1f1g pattern {71111111/2111/311/2/1}

Atom   0C    basis set group =>   1
Atom   1N    basis set group =>   2
Atom   2C    basis set group =>   1
Atom   3C    basis set group =>   1
Atom   4C    basis set group =>   1
Atom   5C    basis set group =>   1
Atom   6N    basis set group =>   2
Atom   7O    basis set group =>   3
Atom   8O    basis set group =>   3
Atom   9F    basis set group =>   4
Atom  10H    basis set group =>   5
Atom  11H    basis set group =>   5
Atom  12H    basis set group =>   5
Atom  13C    basis set group =>   1
Atom  14H    basis set group =>   5
Atom  15H    basis set group =>   5
Atom  16H    basis set group =>   5
Atom  17S    basis set group =>   6


           ************************************************************
           *        Program running with 24 parallel MPI-processes    *
           *              working on a common directory               *
           ************************************************************
------------------------------------------------------------------------------
                           ORCA GTO INTEGRAL CALCULATION
                           -- RI-GTO INTEGRALS CHOSEN --
------------------------------------------------------------------------------
------------------------------------------------------------------------------
                   ___                                                        
                  /   \      - P O W E R E D   B Y -                         
                 /     \                                                     
                 |  |  |   _    _      __       _____    __    __             
                 |  |  |  | |  | |    /  \     |  _  \  |  |  /  |          
                  \  \/   | |  | |   /    \    | | | |  |  | /  /          
                 / \  \   | |__| |  /  /\  \   | |_| |  |  |/  /          
                |  |  |   |  __  | /  /__\  \  |    /   |      \           
                |  |  |   | |  | | |   __   |  |    \   |  |\   \          
                \     /   | |  | | |  |  |  |  | |\  \  |  | \   \       
                 \___/    |_|  |_| |__|  |__|  |_| \__\ |__|  \__/        
                                                                              
                      - O R C A' S   B I G   F R I E N D -                    
                                      &                                       
                       - I N T E G R A L  F E E D E R -                       
                                                                              
 v1 FN, 2020, v2 2021                                                         
------------------------------------------------------------------------------


Reading SHARK input file structure_opt.SHARKINP.tmp ... ok
----------------------
SHARK INTEGRAL PACKAGE
----------------------

Number of atoms                             ...     18
Number of basis functions                   ...    314
Number of shells                            ...    154
Maximum angular momentum                    ...      2
Integral batch strategy                     ... SHARK/LIBINT Hybrid
RI-J (if used) integral strategy            ... SPLIT-RIJ (Revised 2003 algorithm where possible)
Printlevel                                  ...      1
Contraction scheme used                     ... SEGMENTED contraction
Coulomb Range Separation                    ... NOT USED
Exchange Range Separation                   ... Long Range
   Mu parameter                             ...  0.300000
   Scaling (regular/separated)              ...  0.157706  0.842294
Finite Nucleus Model                        ... NOT USED
Auxiliary Coulomb fitting basis             ... AVAILABLE
   # of basis functions in Aux-J            ...    656
   # of shells in Aux-J                     ...    212
   Maximum angular momentum in Aux-J        ...      4
Auxiliary J/K fitting basis                 ... NOT available
Auxiliary Correlation fitting basis         ... NOT available
Auxiliary 'external' fitting basis          ... NOT available
Integral threshold                          ...     2.500000e-11
Primitive cut-off                           ...     2.500000e-12
Primitive pair pre-selection threshold      ...     2.500000e-12

Calculating pre-screening integrals         ... done (  0.0 sec) Dimension = 154
Organizing shell pair data                  ... done (  0.1 sec)
Shell pair information
Total number of shell pairs                 ...     11935
Shell pairs after pre-screening             ...      9425
Total number of primitive shell pairs       ...     38500
Primitive shell pairs kept                  ...     21457
          la=0 lb=0:   2915 shell pairs
          la=1 lb=0:   3875 shell pairs
          la=1 lb=1:   1322 shell pairs
          la=2 lb=0:    748 shell pairs
          la=2 lb=1:    510 shell pairs
          la=2 lb=2:     55 shell pairs

Calculating one electron integrals          ... done (  0.0 sec)
Calculating RI/J V-Matrix + Cholesky decomp.... done (  0.1 sec)
Calculating Nuclear repulsion               ... done (  0.3 sec) ENN=    707.018853670172 Eh

SHARK setup successfully completed in   1.3 seconds

Maximum memory used throughout the entire GTOINT-calculation: 18.0 MB


           ************************************************************
           *        Program running with 24 parallel MPI-processes    *
           *              working on a common directory               *
           ************************************************************
-------------------------------------------------------------------------------
                                 ORCA SCF
-------------------------------------------------------------------------------

------------
SCF SETTINGS
------------
Hamiltonian:
 Density Functional     Method          .... DFT(GTOs)
 Exchange Functional    Exchange        .... WB97X
 Correlation Functional Correlation     .... WB97X
 Gradients option       PostSCFGGA      .... off
 Hybrid DFT is turned on
   Fraction HF Exchange ScalHFX         ....  0.157706
   Scaling of DF-GGA-X  ScalDFX         ....  0.000000
   Scaling of DF-GGA-C  ScalDFC         ....  1.000000
   Scaling of DF-LDA-C  ScalLDAC        ....  1.000000
   Perturbative correction              ....  0.000000
   Density functional embedding theory  .... OFF
 Long-range corrected/Screened/Range-Separated Hybrid DFT is turned on
   Amount of maximum screened exact exchange              ....  0.842294
   Range separation parameter mu (erf(mu*r12)/r12)        ....  0.300000
 RI-approximation to the Coulomb term is turned on
   Number of AuxJ basis functions       .... 656
   RIJ-COSX (HFX calculated with COS-X)).... on


General Settings:
 Integral files         IntName         .... structure_opt
 Hartree-Fock type      HFTyp           .... RHF
 Total Charge           Charge          ....   -1
 Multiplicity           Mult            ....    1
 Number of Electrons    NEL             ....   98
 Basis Dimension        Dim             ....  314
 Nuclear Repulsion      ENuc            ....    707.0188536702 Eh

Convergence Acceleration:
 DIIS                   CNVDIIS         .... on
   Start iteration      DIISMaxIt       ....    12
   Startup error        DIISStart       ....  0.200000
   # of expansion vecs  DIISMaxEq       ....     5
   Bias factor          DIISBfac        ....   1.050
   Max. coefficient     DIISMaxC        ....  10.000
 Trust-Rad. Augm. Hess. CNVTRAH         .... auto
   Auto Start mean grad. ratio tolernc. ....  1.125000
   Auto Start start iteration           ....    20
   Auto Start num. interpolation iter.  ....    10
   Max. Number of Micro iterations      ....    16
   Max. Number of Macro iterations      .... Maxiter - #DIIS iter
   Number of Davidson start vectors     ....     2
   Converg. threshold I  (grad. norm)   ....   1.000e-05
   Converg. threshold II (energy diff.) ....   1.000e-08
   Grad. Scal. Fac. for Micro threshold ....   0.100
   Minimum threshold for Micro iter.    ....   0.010
   NR start threshold (gradient norm)   ....   0.001
   Initial trust radius                 ....   0.400
   Minimum AH scaling param. (alpha)    ....   1.000
   Maximum AH scaling param. (alpha)    .... 1000.000
   Orbital update algorithm             .... Taylor
   White noise on init. David. guess    .... on
   Maximum white noise                  ....   0.010
   Quad. conv. algorithm                .... NR
 SOSCF                  CNVSOSCF        .... on
   Start iteration      SOSCFMaxIt      ....   150
   Startup grad/error   SOSCFStart      ....  0.003300
 Level Shifting         CNVShift        .... on
   Level shift para.    LevelShift      ....    0.2500
   Turn off err/grad.   ShiftErr        ....    0.0010
 Zerner damping         CNVZerner       .... off
 Static damping         CNVDamp         .... on
   Fraction old density DampFac         ....    0.7000
   Max. Damping (<1)    DampMax         ....    0.9800
   Min. Damping (>=0)   DampMin         ....    0.0000
   Turn off err/grad.   DampErr         ....    0.1000
 Fernandez-Rico         CNVRico         .... off

SCF Procedure:
 Maximum # iterations   MaxIter         ....   125
 SCF integral mode      SCFMode         .... Direct
   Integral package                     .... SHARK and LIBINT hybrid scheme
 Reset frequency        DirectResetFreq ....    20
 Integral Threshold     Thresh          ....  2.500e-11 Eh
 Primitive CutOff       TCut            ....  2.500e-12 Eh

Convergence Tolerance:
 Convergence Check Mode ConvCheckMode   .... Total+1el-Energy
 Convergence forced     ConvForced      .... 0
 Energy Change          TolE            ....  1.000e-08 Eh
 1-El. energy change                    ....  1.000e-05 Eh
 Orbital Gradient       TolG            ....  1.000e-05
 Orbital Rotation angle TolX            ....  1.000e-05
 DIIS Error             TolErr          ....  5.000e-07


Diagonalization of the overlap matrix:
Smallest eigenvalue                        ... 4.164e-06
Time for diagonalization                   ...    0.022 sec
Threshold for overlap eigenvalues          ... 1.000e-08
Number of eigenvalues below threshold      ... 0
Time for construction of square roots      ...    0.204 sec
Total time needed                          ...    0.228 sec

Time for model grid setup =    0.440 sec

------------------------------
INITIAL GUESS: MODEL POTENTIAL
------------------------------
Loading Hartree-Fock densities                     ... done
Calculating cut-offs                               ... done
Initializing the effective Hamiltonian             ... done
Setting up the integral package (SHARK)            ... done
Starting the Coulomb interaction                   ... done (   0.1 sec)
Reading the grid                                   ... done
Mapping shells                                     ... done
Starting the XC term evaluation                    ... done (   0.1 sec)
  promolecular density results
     # of electrons  =     96.995351569
     EX              =    -96.552810387
     EC              =     -3.327540677
     EX+EC           =    -99.880351064
Transforming the Hamiltonian                       ... done (   0.0 sec)
Diagonalizing the Hamiltonian                      ... done (   0.0 sec)
Back transforming the eigenvectors                 ... done (   0.0 sec)
Now organizing SCF variables                       ... done
                      ------------------
                      INITIAL GUESS DONE (   0.6 sec)
                      ------------------
-------------------
DFT GRID GENERATION
-------------------

General Integration Accuracy     IntAcc      ... 4.388
Radial Grid Type                 RadialGrid  ... OptM3 with GC (2021)
Angular Grid (max. ang.)         AngularGrid ... 4 (Lebedev-302)
Angular grid pruning method      GridPruning ... 4 (adaptive)
Weight generation scheme         WeightScheme... Becke
Basis function cutoff            BFCut       ... 1.0000e-11
Integration weight cutoff        WCut        ... 1.0000e-14
Angular grids for H and He will be reduced by one unit
Partially contracted basis set               ... off
Rotationally invariant grid construction     ... off

Total number of grid points                  ...    98040
Total number of batches                      ...     1541
Average number of points per batch           ...       63
Average number of grid points per atom       ...     5447
Time for grid setup =    0.892 sec

--------------------
COSX GRID GENERATION
--------------------

GRIDX 1
-------
General Integration Accuracy     IntAcc      ... 3.816
Radial Grid Type                 RadialGrid  ... OptM3 with GC (2021)
Angular Grid (max. ang.)         AngularGrid ... 1 (Lebedev-50)
Angular grid pruning method      GridPruning ... 4 (adaptive)
Weight generation scheme         WeightScheme... Becke
Basis function cutoff            BFCut       ... 1.0000e-11
Integration weight cutoff        WCut        ... 1.0000e-14
Angular grids for H and He will be reduced by one unit
Partially contracted basis set               ... on
Rotationally invariant grid construction     ... off

Total number of grid points                  ...    12238
Total number of batches                      ...      201
Average number of points per batch           ...       60
Average number of grid points per atom       ...      680
UseSFitting                                  ... on

GRIDX 2
-------
General Integration Accuracy     IntAcc      ... 4.020
Radial Grid Type                 RadialGrid  ... OptM3 with GC (2021)
Angular Grid (max. ang.)         AngularGrid ... 2 (Lebedev-110)
Angular grid pruning method      GridPruning ... 4 (adaptive)
Weight generation scheme         WeightScheme... Becke
Basis function cutoff            BFCut       ... 1.0000e-11
Integration weight cutoff        WCut        ... 1.0000e-14
Angular grids for H and He will be reduced by one unit
Partially contracted basis set               ... on
Rotationally invariant grid construction     ... off

Total number of grid points                  ...    30944
Total number of batches                      ...      494
Average number of points per batch           ...       62
Average number of grid points per atom       ...     1719
UseSFitting                                  ... on

GRIDX 3
-------
General Integration Accuracy     IntAcc      ... 4.338
Radial Grid Type                 RadialGrid  ... OptM3 with GC (2021)
Angular Grid (max. ang.)         AngularGrid ... 3 (Lebedev-194)
Angular grid pruning method      GridPruning ... 4 (adaptive)
Weight generation scheme         WeightScheme... Becke
Basis function cutoff            BFCut       ... 1.0000e-11
Integration weight cutoff        WCut        ... 1.0000e-14
Angular grids for H and He will be reduced by one unit
Partially contracted basis set               ... on
Rotationally invariant grid construction     ... off

Total number of grid points                  ...    68717
Total number of batches                      ...     1082
Average number of points per batch           ...       63
Average number of grid points per atom       ...     3818
UseSFitting                                  ... on

Time for X-Grid setup             =    1.298 sec


--------------------
CPCM SOLVATION MODEL
--------------------
CPCM parameters:
  Epsilon                                         ...      78.3550
  Refrac                                          ...       1.3328
  Rsolv                                           ...       1.3000
  Surface type                                    ... GAUSSIAN VDW
  Epsilon function type                           ...         CPCM
Solvent:                                     ... WATER
SMD-CDS solvent descriptors:
  Soln                                       ...    1.3328
  Soln25                                     ...    1.3323
  Sola                                       ...    0.0000
  Solb                                       ...    0.0000
  Solg                                       ...    0.0000
  Solc                                       ...    0.0000
  Solh                                       ...    0.0000
Radii:
 Radius for C  used is    3.4960 Bohr (=   1.8500 Ang.)
 Radius for N  used is    3.5716 Bohr (=   1.8900 Ang.)
 Radius for O  used is    2.8724 Bohr (=   1.5200 Ang.)
 Radius for F  used is    3.2692 Bohr (=   1.7300 Ang.)
 Radius for H  used is    2.2677 Bohr (=   1.2000 Ang.)
 Radius for S  used is    4.7054 Bohr (=   2.4900 Ang.)
Calculating surface                               ...        done! (  0.0s)
GEPOL surface points                              ...         1152
GEPOL Volume                                      ...    1371.5685
GEPOL Surface-area                                ...     843.9937
Calculating surface distance matrix               ...        done! (  0.0s)
Performing Cholesky decomposition & store         ...        done! (  0.4s)
Overall time for CPCM initialization              ...                 0.4s
--------------
SCF ITERATIONS
--------------
ITER       Energy         Delta-E        Max-DP      RMS-DP      [F,P]     Damp
               ***  Starting incremental Fock matrix formation  ***
  0   -989.8669984879   0.000000000000 0.33248401  0.00340792  0.2373509 0.7000
  1   -990.0293505053  -0.162352017456 0.27473129  0.00267328  0.1177957 0.7000
                               ***Turning on DIIS***
  2   -990.1018839166  -0.072533411320 1.60826220  0.00958567  0.0623882 0.0000
  3   -990.2260773603  -0.124193443683 0.78499673  0.00407577  0.0549981 0.0000
  4   -990.2452598795  -0.019182519169 0.26400505  0.00144573  0.0127264 0.0000
  5   -990.2464327823  -0.001172902774 0.12154227  0.00071891  0.0061648 0.0000
                      *** Initiating the SOSCF procedure ***
                           *** Shutting down DIIS ***
                      *** Re-Reading the Fockian *** 
                      *** Removing any level shift *** 
ITER      Energy       Delta-E        Grad      Rot      Max-DP    RMS-DP
  6   -990.24666100  -0.0002282182  0.001310  0.001310  0.034532  0.000260
               *** Restarting incremental Fock matrix formation ***
  7   -990.24675409  -0.0000930854  0.000868  0.002140  0.017197  0.000220
  8   -990.24679031  -0.0000362280  0.000317  0.002231  0.015608  0.000210
  9   -990.24679634  -0.0000060234  0.000644  0.000666  0.008413  0.000108
 10   -990.24680253  -0.0000061884  0.000107  0.000179  0.004767  0.000038
 11   -990.24680259  -0.0000000689  0.000091  0.000124  0.006120  0.000032
 12   -990.24680295  -0.0000003517  0.000015  0.000039  0.008552  0.000047
 13   -990.24680295  -0.0000000027  0.000006  0.000035  0.006112  0.000042
 14   -990.24680295  -0.0000000039  0.000005  0.000009  0.003642  0.000027
                  ***Gradient check signals convergence***
              ***Rediagonalizing the Fockian in SOSCF/NRSCF***

               *****************************************************
               *                     SUCCESS                       *
               *           SCF CONVERGED AFTER  15 CYCLES          *
               *****************************************************

Old exchange energy                            =    -28.432256111 Eh
New exchange energy                            =    -28.432264300 Eh
Exchange energy change after final integration =     -0.000008189 Eh
Total energy after final integration           =   -990.246811149 Eh
Final COS-X integration done in                =     3.714 sec

SMD CDS free energy correction energy :                 5.86373     Kcal/mol
Total Energy after SMD CDS correction =              -990.237466701 Eh

----------------
TOTAL SCF ENERGY
----------------

Total Energy       :         -990.23746670 Eh          -26945.73136 eV

Components:
Nuclear Repulsion  :          707.01885367 Eh           19238.96110 eV
Electronic Energy  :        -1697.25632037 Eh          -46184.69246 eV
One Electron Energy:        -2774.50387746 Eh          -75498.08875 eV
Two Electron Energy:         1077.24755709 Eh           29313.39629 eV
Max COSX asymmetry :            0.00000248 Eh               0.00007 eV
CPCM Dielectric    :           -0.11241093 Eh              -3.05886 eV
SMD CDS (Gcds)     :            0.00934445 Eh               0.25428 eV

Virial components:
Potential Energy   :        -1977.46662568 Eh          -53809.60251 eV
Kinetic Energy     :          987.22915898 Eh           26863.87115 eV
Virial Ratio       :            2.00304722


DFT components:
N(Alpha)           :       48.999970296122 electrons
N(Beta)            :       48.999970296122 electrons
N(Total)           :       97.999940592243 electrons
E(XC)              :      -73.339621831347 Eh       
DFET-embed. en.    :        0.000000000000 Eh       
CPCM Solvation Model Properties:
Surface-charge          :            0.94808044
Charge-correction       :           -0.00590996 Eh              -0.16082 eV
Free-energy (cav+disp)  :            0.00934445 Eh               0.25428 eV

---------------
SCF CONVERGENCE
---------------

  Last Energy change         ...   -7.0596e-09  Tolerance :   1.0000e-08
  Last MAX-Density change    ...    2.6645e-15  Tolerance :   1.0000e-07
  Last RMS-Density change    ...    4.0583e-17  Tolerance :   5.0000e-09
  Last Orbital Gradient      ...    1.8978e-06  Tolerance :   1.0000e-05
  Last Orbital Rotation      ...    1.5315e-06  Tolerance :   1.0000e-05

             **** THE GBW FILE WAS UPDATED (structure_opt.gbw) ****
             **** DENSITY structure_opt.scfp WAS UPDATED ****
             **** ENERGY FILE WAS UPDATED (structure_opt.en.tmp) ****
             **** THE GBW FILE WAS UPDATED (structure_opt.gbw) ****
             **** DENSITY structure_opt.scfp WAS UPDATED ****
----------------
ORBITAL ENERGIES
----------------

  NO   OCC          E(Eh)            E(eV) 
   0   2.0000     -88.720860     -2414.2173 
   1   2.0000     -24.793090      -674.6543 
   2   2.0000     -19.275422      -524.5109 
   3   2.0000     -19.243761      -523.6494 
   4   2.0000     -14.669651      -399.1815 
   5   2.0000     -14.435192      -392.8015 
   6   2.0000     -10.437256      -284.0122 
   7   2.0000     -10.363779      -282.0128 
   8   2.0000     -10.337719      -281.3036 
   9   2.0000     -10.320616      -280.8382 
  10   2.0000     -10.290144      -280.0091 
  11   2.0000     -10.236125      -278.5391 
  12   2.0000      -7.916661      -215.4233 
  13   2.0000      -5.879841      -159.9986 
  14   2.0000      -5.872420      -159.7967 
  15   2.0000      -5.872395      -159.7960 
  16   2.0000      -1.396131       -37.9907 
  17   2.0000      -1.348065       -36.6827 
  18   2.0000      -1.151320       -31.3290 
  19   2.0000      -1.108841       -30.1731 
  20   2.0000      -1.008065       -27.4308 
  21   2.0000      -0.942908       -25.6578 
  22   2.0000      -0.873637       -23.7729 
  23   2.0000      -0.836445       -22.7608 
  24   2.0000      -0.796239       -21.6668 
  25   2.0000      -0.768826       -20.9208 
  26   2.0000      -0.705718       -19.2036 
  27   2.0000      -0.686286       -18.6748 
  28   2.0000      -0.669031       -18.2053 
  29   2.0000      -0.665483       -18.1087 
  30   2.0000      -0.661536       -18.0013 
  31   2.0000      -0.633021       -17.2254 
  32   2.0000      -0.620142       -16.8749 
  33   2.0000      -0.614795       -16.7294 
  34   2.0000      -0.563485       -15.3332 
  35   2.0000      -0.536617       -14.6021 
  36   2.0000      -0.527631       -14.3576 
  37   2.0000      -0.527471       -14.3532 
  38   2.0000      -0.494694       -13.4613 
  39   2.0000      -0.494404       -13.4534 
  40   2.0000      -0.455937       -12.4067 
  41   2.0000      -0.432344       -11.7647 
  42   2.0000      -0.421490       -11.4693 
  43   2.0000      -0.416138       -11.3237 
  44   2.0000      -0.407686       -11.0937 
  45   2.0000      -0.392732       -10.6868 
  46   2.0000      -0.382805       -10.4166 
  47   2.0000      -0.259302        -7.0560 
  48   2.0000      -0.259078        -7.0499 
  49   0.0000      -0.064643        -1.7590 
  50   0.0000       0.022899         0.6231 
  51   0.0000       0.050470         1.3734 
  52   0.0000       0.055400         1.5075 
  53   0.0000       0.066422         1.8074 
  54   0.0000       0.067911         1.8479 
  55   0.0000       0.076683         2.0867 
  56   0.0000       0.093941         2.5563 
  57   0.0000       0.096069         2.6142 
  58   0.0000       0.098199         2.6721 
  59   0.0000       0.100983         2.7479 
  60   0.0000       0.115199         3.1347 
  61   0.0000       0.125093         3.4039 
  62   0.0000       0.131037         3.5657 
  63   0.0000       0.133653         3.6369 
  64   0.0000       0.142325         3.8729 
  65   0.0000       0.143878         3.9151 
  66   0.0000       0.159810         4.3486 
  67   0.0000       0.163061         4.4371 
  68   0.0000       0.163677         4.4539 
  69   0.0000       0.170607         4.6425 
  70   0.0000       0.172027         4.6811 
  71   0.0000       0.173736         4.7276 
  72   0.0000       0.175688         4.7807 
  73   0.0000       0.182881         4.9764 
  74   0.0000       0.192395         5.2353 
  75   0.0000       0.194272         5.2864 
  76   0.0000       0.198482         5.4010 
  77   0.0000       0.201915         5.4944 
  78   0.0000       0.207919         5.6578 
  79   0.0000       0.214290         5.8311 
  80   0.0000       0.218218         5.9380 
  81   0.0000       0.221092         6.0162 
  82   0.0000       0.223672         6.0864 
  83   0.0000       0.236914         6.4468 
  84   0.0000       0.238002         6.4764 
  85   0.0000       0.241428         6.5696 
  86   0.0000       0.253657         6.9024 
  87   0.0000       0.258944         7.0462 
  88   0.0000       0.268938         7.3182 
  89   0.0000       0.270446         7.3592 
  90   0.0000       0.276699         7.5294 
  91   0.0000       0.279668         7.6102 
  92   0.0000       0.282252         7.6805 
  93   0.0000       0.283418         7.7122 
  94   0.0000       0.292167         7.9503 
  95   0.0000       0.298028         8.1098 
  96   0.0000       0.307810         8.3759 
  97   0.0000       0.315904         8.5962 
  98   0.0000       0.321508         8.7487 
  99   0.0000       0.329564         8.9679 
 100   0.0000       0.336984         9.1698 
 101   0.0000       0.342567         9.3217 
 102   0.0000       0.349496         9.5103 
 103   0.0000       0.352396         9.5892 
 104   0.0000       0.364092         9.9074 
 105   0.0000       0.373058        10.1514 
 106   0.0000       0.378450        10.2981 
 107   0.0000       0.384582        10.4650 
 108   0.0000       0.395676        10.7669 
 109   0.0000       0.406516        11.0619 
 110   0.0000       0.411399        11.1947 
 111   0.0000       0.420447        11.4410 
 112   0.0000       0.424981        11.5643 
 113   0.0000       0.431233        11.7345 
 114   0.0000       0.440351        11.9826 
 115   0.0000       0.453286        12.3345 
 116   0.0000       0.464787        12.6475 
 117   0.0000       0.473579        12.8867 
 118   0.0000       0.488022        13.2797 
 119   0.0000       0.491669        13.3790 
 120   0.0000       0.501612        13.6496 
 121   0.0000       0.504521        13.7287 
 122   0.0000       0.524655        14.2766 
 123   0.0000       0.532738        14.4965 
 124   0.0000       0.543938        14.8013 
 125   0.0000       0.554086        15.0774 
 126   0.0000       0.590968        16.0811 
 127   0.0000       0.619010        16.8441 
 128   0.0000       0.622173        16.9302 
 129   0.0000       0.637792        17.3552 
 130   0.0000       0.644793        17.5457 
 131   0.0000       0.657384        17.8883 
 132   0.0000       0.661609        18.0033 
 133   0.0000       0.681479        18.5440 
 134   0.0000       0.685576        18.6555 
 135   0.0000       0.712414        19.3858 
 136   0.0000       0.726112        19.7585 
 137   0.0000       0.749691        20.4001 
 138   0.0000       0.752951        20.4888 
 139   0.0000       0.771628        20.9971 
 140   0.0000       0.776836        21.1388 
 141   0.0000       0.778354        21.1801 
 142   0.0000       0.814417        22.1614 
 143   0.0000       0.837463        22.7885 
 144   0.0000       0.843197        22.9446 
 145   0.0000       0.855281        23.2734 
 146   0.0000       0.864297        23.5187 
 147   0.0000       0.873296        23.7636 
 148   0.0000       0.907108        24.6837 
 149   0.0000       0.919134        25.0109 
 150   0.0000       0.925288        25.1784 
 151   0.0000       0.937905        25.5217 
 152   0.0000       0.959327        26.1046 
 153   0.0000       0.960562        26.1382 
 154   0.0000       0.968968        26.3670 
 155   0.0000       0.979555        26.6550 
 156   0.0000       0.990882        26.9633 
 157   0.0000       1.001565        27.2540 
 158   0.0000       1.004844        27.3432 
 159   0.0000       1.008892        27.4534 
 160   0.0000       1.013975        27.5917 
 161   0.0000       1.037483        28.2313 
 162   0.0000       1.047121        28.4936 
 163   0.0000       1.066315        29.0159 
 164   0.0000       1.075158        29.2565 
 165   0.0000       1.082829        29.4653 
 166   0.0000       1.088564        29.6213 
 167   0.0000       1.141782        31.0695 
 168   0.0000       1.147949        31.2373 
 169   0.0000       1.157106        31.4865 
 170   0.0000       1.173892        31.9432 
 171   0.0000       1.198677        32.6177 
 172   0.0000       1.206498        32.8305 
 173   0.0000       1.215028        33.0626 
 174   0.0000       1.251484        34.0546 
 175   0.0000       1.261075        34.3156 
 176   0.0000       1.277671        34.7672 
 177   0.0000       1.281320        34.8665 
 178   0.0000       1.286519        35.0080 
 179   0.0000       1.295087        35.2411 
 180   0.0000       1.300963        35.4010 
 181   0.0000       1.358811        36.9751 
 182   0.0000       1.396325        37.9959 
 183   0.0000       1.408614        38.3303 
 184   0.0000       1.474256        40.1165 
 185   0.0000       1.516849        41.2756 
 186   0.0000       1.544287        42.0222 
 187   0.0000       1.588333        43.2207 
 188   0.0000       1.589413        43.2501 
 189   0.0000       1.591423        43.3048 
 190   0.0000       1.618939        44.0536 
 191   0.0000       1.637041        44.5462 
 192   0.0000       1.657364        45.0992 
 193   0.0000       1.658893        45.1408 
 194   0.0000       1.697134        46.1814 
 195   0.0000       1.700812        46.2814 
 196   0.0000       1.712840        46.6087 
 197   0.0000       1.717557        46.7371 
 198   0.0000       1.752463        47.6869 
 199   0.0000       1.763627        47.9907 
 200   0.0000       1.787353        48.6364 
 201   0.0000       1.812776        49.3281 
 202   0.0000       1.816376        49.4261 
 203   0.0000       1.821263        49.5591 
 204   0.0000       1.840113        50.0720 
 205   0.0000       1.869161        50.8625 
 206   0.0000       1.871782        50.9338 
 207   0.0000       1.912591        52.0442 
 208   0.0000       1.934507        52.6406 
 209   0.0000       1.949340        53.0442 
 210   0.0000       1.976397        53.7805 
 211   0.0000       1.980667        53.8967 
 212   0.0000       1.993668        54.2505 
 213   0.0000       2.016362        54.8680 
 214   0.0000       2.033460        55.3333 
 215   0.0000       2.044998        55.6472 
 216   0.0000       2.071604        56.3712 
 217   0.0000       2.112240        57.4770 
 218   0.0000       2.143506        58.3278 
 219   0.0000       2.148560        58.4653 
 220   0.0000       2.171282        59.0836 
 221   0.0000       2.174705        59.1767 
 222   0.0000       2.180510        59.3347 
 223   0.0000       2.208808        60.1047 
 224   0.0000       2.294248        62.4297 
 225   0.0000       2.324535        63.2538 
 226   0.0000       2.335651        63.5563 
 227   0.0000       2.339017        63.6479 
 228   0.0000       2.401529        65.3489 
 229   0.0000       2.431889        66.1751 
 230   0.0000       2.500043        68.0296 
 231   0.0000       2.564724        69.7897 
 232   0.0000       2.596831        70.6634 
 233   0.0000       2.600964        70.7758 
 234   0.0000       2.607257        70.9471 
 235   0.0000       2.629491        71.5521 
 236   0.0000       2.663552        72.4789 
 237   0.0000       2.672344        72.7182 
 238   0.0000       2.673857        72.7594 
 239   0.0000       2.675534        72.8050 
 240   0.0000       2.701293        73.5059 
 241   0.0000       2.784300        75.7646 
 242   0.0000       2.785827        75.8062 
 243   0.0000       2.831574        77.0510 
 244   0.0000       2.854705        77.6805 
 245   0.0000       2.865365        77.9705 
 246   0.0000       2.879531        78.3560 
 247   0.0000       2.886011        78.5324 
 248   0.0000       2.902898        78.9919 
 249   0.0000       2.915320        79.3299 
 250   0.0000       2.936531        79.9071 
 251   0.0000       2.944173        80.1150 
 252   0.0000       2.960638        80.5631 
 253   0.0000       2.981694        81.1360 
 254   0.0000       2.989047        81.3361 
 255   0.0000       3.004672        81.7613 
 256   0.0000       3.021295        82.2136 
 257   0.0000       3.103132        84.4405 
 258   0.0000       3.153918        85.8225 
 259   0.0000       3.190087        86.8067 
 260   0.0000       3.270473        88.9941 
 261   0.0000       3.308097        90.0179 
 262   0.0000       3.309421        90.0539 
 263   0.0000       3.350912        91.1829 
 264   0.0000       3.372380        91.7671 
 265   0.0000       3.458037        94.0980 
 266   0.0000       3.499882        95.2366 
 267   0.0000       3.565527        97.0229 
 268   0.0000       3.600138        97.9647 
 269   0.0000       3.681438       100.1770 
 270   0.0000       3.704530       100.8054 
 271   0.0000       3.755824       102.2012 
 272   0.0000       3.854079       104.8748 
 273   0.0000       3.889491       105.8384 
 274   0.0000       3.890293       105.8603 
 275   0.0000       3.891933       105.9049 
 276   0.0000       3.904671       106.2515 
 277   0.0000       3.925221       106.8107 
 278   0.0000       4.017094       109.3107 
 279   0.0000       4.061685       110.5241 
 280   0.0000       4.121288       112.1460 
 281   0.0000       4.147445       112.8577 
 282   0.0000       4.169411       113.4554 
 283   0.0000       4.406490       119.9067 
 284   0.0000       4.481494       121.9477 
 285   0.0000       4.504561       122.5753 
 286   0.0000       4.761717       129.5729 
 287   0.0000       4.943983       134.5326 
 288   0.0000       5.072817       138.0384 
 289   0.0000       5.100045       138.7793 
 290   0.0000       5.191137       141.2580 
 291   0.0000       5.220849       142.0665 
 292   0.0000       5.315271       144.6359 
 293   0.0000       5.698770       155.0714 
 294   0.0000       6.131959       166.8591 
 295   0.0000       6.417366       174.6254 
 296   0.0000       6.540916       177.9874 
 297   0.0000       6.840664       186.1439 
 298   0.0000       7.994661       217.5458 
 299   0.0000      17.552549       477.6291 
 300   0.0000      17.560014       477.8323 
 301   0.0000      17.660441       480.5650 
 302   0.0000      23.652611       643.6203 
 303   0.0000      23.894926       650.2140 
 304   0.0000      23.985052       652.6664 
 305   0.0000      24.033968       653.9975 
 306   0.0000      24.072680       655.0509 
 307   0.0000      24.182568       658.0411 
 308   0.0000      35.375990       962.6296 
 309   0.0000      35.657831       970.2989 
 310   0.0000      49.900668      1357.8662 
 311   0.0000      49.964379      1359.5999 
 312   0.0000      66.793077      1817.5320 
 313   0.0000     188.987032      5142.5986 

--------------------
FRAGMENT INFORMATION
--------------------
Fragment  1:    0   1   2   3   4   5 
Fragment  2:    6   7   8   9  10  11  12 
Fragment  3:   13  14  15  16 
Fragment  4:   17 


                    ********************************
                    * MULLIKEN POPULATION ANALYSIS *
                    ********************************

-------------------------
MULLIKEN FRAGMENT CHARGES
-------------------------
 Fragment   0 :  -0.450352
 Fragment   1 :   0.444086
 Fragment   2 :  -0.039089
 Fragment   3 :  -0.954645
Sum of fragment charges:   -1.0000000

---------------------------------
MULLIKEN FRAGMENT OVERLAP CHARGES
---------------------------------
                  0          1          2          3    
      0      18.594613   0.557643  -0.005632  -0.017304
      1       0.557643  34.979827  -0.001615   0.033020
      2      -0.005632  -0.001615  11.644404  -0.594305
      3      -0.017304   0.033020  -0.594305  17.243940

-----------------------
MULLIKEN ATOMIC CHARGES
-----------------------
   0 C :   -0.052238
   1 N :   -0.191872
   2 C :   -0.282410
   3 C :   -0.343042
   4 C :    0.496340
   5 C :   -0.077131
   6 N :   -0.072894
   7 O :   -0.052654
   8 O :   -0.236545
   9 F :   -0.103840
  10 H :    0.303315
  11 H :    0.270393
  12 H :    0.336312
  13 C :   -0.423280
  14 H :    0.128023
  15 H :    0.129321
  16 H :    0.126847
  17 S :   -0.954645
Sum of atomic charges:   -1.0000000

--------------------------------
MULLIKEN REDUCED ORBITAL CHARGES
--------------------------------
  0 C s       :     3.305422  s :     3.305422
      pz      :     0.669061  p :     2.586396
      px      :     0.978433
      py      :     0.938901
      dz2     :     0.052752  d :     0.160420
      dxz     :     0.048822
      dyz     :     0.028412
      dx2y2   :     0.013778
      dxy     :     0.016654
  1 N s       :     3.609583  s :     3.609583
      pz      :     1.145129  p :     3.551765
      px      :     1.241459
      py      :     1.165177
      dz2     :     0.008163  d :     0.030524
      dxz     :     0.007238
      dyz     :     0.004760
      dx2y2   :     0.005502
      dxy     :     0.004860
  2 C s       :     3.372101  s :     3.372101
      pz      :     0.817557  p :     2.826125
      px      :     1.158668
      py      :     0.849900
      dz2     :     0.023622  d :     0.084184
      dxz     :     0.032205
      dyz     :     0.014781
      dx2y2   :     0.007225
      dxy     :     0.006350
  3 C s       :     3.344040  s :     3.344040
      pz      :     1.123765  p :     2.945717
      px      :     0.858885
      py      :     0.963066
      dz2     :     0.015302  d :     0.053285
      dxz     :     0.017437
      dyz     :     0.005145
      dx2y2   :     0.008250
      dxy     :     0.007151
  4 C s       :     2.475665  s :     2.475665
      pz      :     0.893358  p :     2.970900
      px      :     1.225416
      py      :     0.852126
      dz2     :     0.016567  d :     0.057094
      dxz     :     0.015862
      dyz     :     0.010557
      dx2y2   :     0.007222
      dxy     :     0.006887
  5 C s       :     3.336918  s :     3.336918
      pz      :     1.055700  p :     2.667064
      px      :     0.491346
      py      :     1.120017
      dz2     :     0.013619  d :     0.073150
      dxz     :     0.029766
      dyz     :     0.010374
      dx2y2   :     0.011212
      dxy     :     0.008178
  6 N s       :     3.583188  s :     3.583188
      pz      :     1.066483  p :     3.380713
      px      :     1.214441
      py      :     1.099789
      dz2     :     0.027721  d :     0.108993
      dxz     :     0.039351
      dyz     :     0.023078
      dx2y2   :     0.008550
      dxy     :     0.010293
  7 O s       :     3.776853  s :     3.776853
      pz      :     1.027344  p :     4.257110
      px      :     1.828039
      py      :     1.401728
      dz2     :     0.009709  d :     0.018691
      dxz     :     0.003511
      dyz     :     0.005303
      dx2y2   :     0.000102
      dxy     :     0.000067
  8 O s       :     3.823257  s :     3.823257
      pz      :     1.624599  p :     4.401175
      px      :     1.217746
      py      :     1.558830
      dz2     :     0.001059  d :     0.012113
      dxz     :     0.004900
      dyz     :     0.000879
      dx2y2   :     0.003117
      dxy     :     0.002158
  9 F s       :     3.918780  s :     3.918780
      pz      :     1.389658  p :     5.179731
      px      :     1.916045
      py      :     1.874027
      dz2     :     0.003095  d :     0.005329
      dxz     :     0.000997
      dyz     :     0.001201
      dx2y2   :     0.000027
      dxy     :     0.000009
 10 H s       :     0.672814  s :     0.672814
      pz      :     0.005491  p :     0.023871
      px      :     0.014095
      py      :     0.004285
 11 H s       :     0.704687  s :     0.704687
      pz      :     0.016355  p :     0.024920
      px      :     0.003657
      py      :     0.004909
 12 H s       :     0.638164  s :     0.638164
      pz      :     0.007751  p :     0.025524
      px      :     0.013368
      py      :     0.004405
 13 C s       :     3.285848  s :     3.285848
      pz      :     0.998176  p :     3.084842
      px      :     1.054636
      py      :     1.032030
      dz2     :     0.009802  d :     0.052590
      dxz     :     0.016090
      dyz     :     0.008611
      dx2y2   :     0.014713
      dxy     :     0.003374
 14 H s       :     0.849308  s :     0.849308
      pz      :     0.006004  p :     0.022668
      px      :     0.011492
      py      :     0.005173
 15 H s       :     0.847955  s :     0.847955
      pz      :     0.008792  p :     0.022723
      px      :     0.009076
      py      :     0.004856
 16 H s       :     0.850481  s :     0.850481
      pz      :     0.005189  p :     0.022672
      px      :     0.004680
      py      :     0.012804
 17 S s       :     5.996842  s :     5.996842
      pz      :     3.307410  p :    10.926423
      px      :     3.958289
      py      :     3.660724
      dz2     :     0.008154  d :     0.031380
      dxz     :     0.004368
      dyz     :     0.014266
      dx2y2   :     0.002732
      dxy     :     0.001860


                     *******************************
                     * LOEWDIN POPULATION ANALYSIS *
                     *******************************

------------------------
LOEWDIN FRAGMENT CHARGES
------------------------
 Fragment   0 :   0.014781
 Fragment   1 :  -0.064161
 Fragment   2 :  -0.347778
 Fragment   3 :  -0.602843

----------------------------
LOEWDIN FRAGMENT BOND ORDERS
----------------------------
                  0          1          2          3    
      0      56.998533   6.777403   0.011488   0.093990
      1       6.777403  43.793089   0.001696   0.016278
      2       0.011488   0.001696  15.401739   1.733568
      3       0.093990   0.016278   1.733568  16.602843

----------------------
LOEWDIN ATOMIC CHARGES
----------------------
   0 C :    0.110431
   1 N :   -0.111086
   2 C :    0.064961
   3 C :   -0.054145
   4 C :    0.069688
   5 C :   -0.065068
   6 N :    0.241544
   7 O :   -0.154773
   8 O :   -0.338943
   9 F :   -0.078397
  10 H :    0.085867
  11 H :    0.080895
  12 H :    0.099646
  13 C :   -0.354449
  14 H :    0.002133
  15 H :    0.001948
  16 H :    0.002591
  17 S :   -0.602843

-------------------------------
LOEWDIN REDUCED ORBITAL CHARGES
-------------------------------
  0 C s       :     2.743815  s :     2.743815
      pz      :     0.849736  p :     2.816655
      px      :     1.080597
      py      :     0.886322
      dz2     :     0.112530  d :     0.329099
      dxz     :     0.100685
      dyz     :     0.050357
      dx2y2   :     0.033885
      dxy     :     0.031642
  1 N s       :     3.150881  s :     3.150881
      pz      :     1.301485  p :     3.903351
      px      :     1.416788
      py      :     1.185077
      dz2     :     0.017381  d :     0.056855
      dxz     :     0.015721
      dyz     :     0.007802
      dx2y2   :     0.009545
      dxy     :     0.006405
  2 C s       :     2.787890  s :     2.787890
      pz      :     1.035946  p :     2.965345
      px      :     1.097600
      py      :     0.831799
      dz2     :     0.060313  d :     0.181804
      dxz     :     0.069033
      dyz     :     0.027942
      dx2y2   :     0.014025
      dxy     :     0.010491
  3 C s       :     2.783760  s :     2.783760
      pz      :     1.083872  p :     3.145948
      px      :     1.095553
      py      :     0.966523
      dz2     :     0.034095  d :     0.124437
      dxz     :     0.045083
      dyz     :     0.008096
      dx2y2   :     0.022228
      dxy     :     0.014934
  4 C s       :     2.779754  s :     2.779754
      pz      :     1.067111  p :     3.022288
      px      :     1.110545
      py      :     0.844631
      dz2     :     0.040916  d :     0.128270
      dxz     :     0.039152
      dyz     :     0.021233
      dx2y2   :     0.015075
      dxy     :     0.011895
  5 C s       :     2.758044  s :     2.758044
      pz      :     1.089248  p :     3.126635
      px      :     0.957451
      py      :     1.079936
      dz2     :     0.039894  d :     0.180389
      dxz     :     0.071794
      dyz     :     0.019903
      dx2y2   :     0.031420
      dxy     :     0.017378
  6 N s       :     3.052027  s :     3.052027
      pz      :     1.205938  p :     3.500063
      px      :     1.215184
      py      :     1.078942
      dz2     :     0.060438  d :     0.206365
      dxz     :     0.076178
      dyz     :     0.035703
      dx2y2   :     0.017511
      dxy     :     0.016535
  7 O s       :     3.581171  s :     3.581171
      pz      :     1.283805  p :     4.541298
      px      :     1.838869
      py      :     1.418624
      dz2     :     0.020432  d :     0.032304
      dxz     :     0.005156
      dyz     :     0.006526
      dx2y2   :     0.000119
      dxy     :     0.000071
  8 O s       :     3.667335  s :     3.667335
      pz      :     1.709857  p :     4.651127
      px      :     1.369855
      py      :     1.571414
      dz2     :     0.001545  d :     0.020481
      dxz     :     0.009263
      dyz     :     0.001173
      dx2y2   :     0.005711
      dxy     :     0.002789
  9 F s       :     3.714926  s :     3.714926
      pz      :     1.535339  p :     5.356102
      px      :     1.934382
      py      :     1.886381
      dz2     :     0.004763  d :     0.007368
      dxz     :     0.001184
      dyz     :     0.001376
      dx2y2   :     0.000037
      dxy     :     0.000009
 10 H s       :     0.843718  s :     0.843718
      pz      :     0.016696  p :     0.070416
      px      :     0.042308
      py      :     0.011411
 11 H s       :     0.846696  s :     0.846696
      pz      :     0.047915  p :     0.072408
      px      :     0.011198
      py      :     0.013295
 12 H s       :     0.827120  s :     0.827120
      pz      :     0.023113  p :     0.073234
      px      :     0.038681
      py      :     0.011440
 13 C s       :     2.857515  s :     2.857515
      pz      :     1.143979  p :     3.390122
      px      :     1.118443
      py      :     1.127701
      dz2     :     0.020236  d :     0.106813
      dxz     :     0.032126
      dyz     :     0.019273
      dx2y2   :     0.029144
      dxy     :     0.006033
 14 H s       :     0.926183  s :     0.926183
      pz      :     0.019401  p :     0.071683
      px      :     0.036839
      py      :     0.015443
 15 H s       :     0.926148  s :     0.926148
      pz      :     0.029093  p :     0.071904
      px      :     0.028359
      py      :     0.014452
 16 H s       :     0.925576  s :     0.925576
      pz      :     0.015902  p :     0.071834
      px      :     0.013592
      py      :     0.042340
 17 S s       :     5.600338  s :     5.600338
      pz      :     3.406093  p :    10.965250
      px      :     3.901491
      py      :     3.657667
      dz2     :     0.009575  d :     0.037254
      dxz     :     0.005047
      dyz     :     0.017300
      dx2y2   :     0.003199
      dxy     :     0.002134


                      *****************************
                      * MAYER POPULATION ANALYSIS *
                      *****************************

  NA   - Mulliken gross atomic population
  ZA   - Total nuclear charge
  QA   - Mulliken gross atomic charge
  VA   - Mayer's total valence
  BVA  - Mayer's bonded valence
  FA   - Mayer's free valence

  ATOM       NA         ZA         QA         VA         BVA        FA
  0 C      6.0522     6.0000    -0.0522     4.3025     4.3025    -0.0000
  1 N      7.1919     7.0000    -0.1919     2.7427     2.7427    -0.0000
  2 C      6.2824     6.0000    -0.2824     3.8803     3.8803    -0.0000
  3 C      6.3430     6.0000    -0.3430     4.4223     4.4223     0.0000
  4 C      5.5037     6.0000     0.4963     3.9128     3.9128    -0.0000
  5 C      6.0771     6.0000    -0.0771     3.3039     3.3039     0.0000
  6 N      7.0729     7.0000    -0.0729     3.9398     3.9398     0.0000
  7 O      8.0527     8.0000    -0.0527     2.1989     2.1989     0.0000
  8 O      8.2365     8.0000    -0.2365     2.0122     2.0122     0.0000
  9 F      9.1038     9.0000    -0.1038     0.9624     0.9624     0.0000
 10 H      0.6967     1.0000     0.3033     0.8629     0.8629     0.0000
 11 H      0.7296     1.0000     0.2704     0.9391     0.9391     0.0000
 12 H      0.6637     1.0000     0.3363     0.8143     0.8143    -0.0000
 13 C      6.4233     6.0000    -0.4233     3.6127     3.6127    -0.0000
 14 H      0.8720     1.0000     0.1280     0.9385     0.9385    -0.0000
 15 H      0.8707     1.0000     0.1293     0.9353     0.9353     0.0000
 16 H      0.8732     1.0000     0.1268     0.9473     0.9473    -0.0000
 17 S     16.9546    16.0000    -0.9546     0.6669     0.6669    -0.0000

  Mayer bond orders larger than 0.100000
B(  0-C ,  1-N ) :   1.3279 B(  0-C ,  2-C ) :   0.1909 B(  0-C ,  3-C ) :   0.1021 
B(  0-C ,  4-C ) :   0.2416 B(  0-C ,  5-C ) :   1.2068 B(  0-C ,  6-N ) :  -0.1694 
B(  0-C ,  9-F ) :   1.4253 B(  1-N ,  2-C ) :   1.2331 B(  1-N ,  5-C ) :   0.1412 
B(  2-C ,  3-C ) :   1.5190 B(  2-C , 10-H ) :   0.8936 B(  3-C ,  4-C ) :   1.4471 
B(  3-C ,  8-O ) :   0.1349 B(  3-C , 11-H ) :   0.8903 B(  3-C , 17-S ) :   0.1196 
B(  4-C ,  5-C ) :   1.5375 B(  4-C ,  6-N ) :  -0.1524 B(  4-C ,  8-O ) :   0.1747 
B(  4-C ,  9-F ) :  -0.1235 B(  4-C , 12-H ) :   0.7839 B(  5-C ,  6-N ) :   0.7540 
B(  5-C ,  8-O ) :  -0.1610 B(  5-C ,  9-F ) :  -0.3806 B(  6-N ,  7-O ) :   1.8517 
B(  6-N ,  8-O ) :   1.6689 B(  7-O ,  8-O ) :   0.2623 B( 13-C , 14-H ) :   0.9818 
B( 13-C , 15-H ) :   0.9835 B( 13-C , 16-H ) :   0.9826 B( 13-C , 17-S ) :   0.6703 


-------
TIMINGS
-------

Total SCF time: 0 days 0 hours 0 min 41 sec 

Total time                  ....      41.839 sec
Sum of individual times     ....      40.195 sec  ( 96.1%)

[...]
 290   0.0000       5.204419       141.6194 
 291   0.0000       5.283033       143.7586 
 292   0.0000       5.380381       146.4076 
 293   0.0000       5.848971       159.1586 
 294   0.0000       6.342835       172.5973 
 295   0.0000       6.426187       174.8654 
 296   0.0000       6.551612       178.2784 
 297   0.0000       6.860772       186.6911 
 298   0.0000       7.994862       217.5513 
 299   0.0000      17.552608       477.6307 
 300   0.0000      17.560144       477.8358 
 301   0.0000      17.660496       480.5665 
 302   0.0000      23.698663       644.8734 
 303   0.0000      23.956116       651.8791 
 304   0.0000      24.022096       653.6745 
 305   0.0000      24.033766       653.9920 
 306   0.0000      24.132221       656.6711 
 307   0.0000      24.261744       660.1956 
 308   0.0000      35.452209       964.7037 
 309   0.0000      35.736248       972.4328 
 310   0.0000      49.924205      1358.5067 
 311   0.0000      50.031954      1361.4387 
 312   0.0000      66.806360      1817.8935 
 313   0.0000     188.987269      5142.6050 

--------------------
FRAGMENT INFORMATION
--------------------
Fragment  1:    0   1   2   3   4   5 
Fragment  2:    6   7   8   9  10  11  12 
Fragment  3:   13  14  15  16 
Fragment  4:   17 


                    ********************************
                    * MULLIKEN POPULATION ANALYSIS *
                    ********************************

-------------------------
MULLIKEN FRAGMENT CHARGES
-------------------------
 Fragment   0 :  -0.485672
 Fragment   1 :   0.479489
 Fragment   2 :  -0.040207
 Fragment   3 :  -0.953609
Sum of fragment charges:   -1.0000000

---------------------------------
MULLIKEN FRAGMENT OVERLAP CHARGES
---------------------------------
                  0          1          2          3    
      0      16.142923   0.439698  -0.005658  -0.020040
      1       0.439698  35.066724  -0.001563   0.034616
      2      -0.005658  -0.001563  11.645069  -0.590399
      3      -0.020040   0.034616  -0.590399  17.241521

-----------------------
MULLIKEN ATOMIC CHARGES
-----------------------
   0 C :   -0.026246
   1 N :   -0.186155
   2 C :   -0.258832
   3 C :   -0.417934
   4 C :    0.597808
   5 C :   -0.194314
   6 N :   -0.012501
   7 O :   -0.163499
   8 O :   -0.113205
   9 F :   -0.120272
  10 H :    0.292687
  11 H :    0.259633
  12 H :    0.336646
  13 C :   -0.424396
  14 H :    0.128258
  15 H :    0.129146
  16 H :    0.126784
  17 S :   -0.953609
Sum of atomic charges:   -1.0000000

--------------------------------
MULLIKEN REDUCED ORBITAL CHARGES
--------------------------------
  0 C s       :     3.266982  s :     3.266982
      pz      :     0.661948  p :     2.589779
      px      :     0.982550
      py      :     0.945281
      dz2     :     0.056970  d :     0.169485
      dxz     :     0.050376
      dyz     :     0.029292
      dx2y2   :     0.014631
      dxy     :     0.018216
  1 N s       :     3.588370  s :     3.588370
      pz      :     1.155632  p :     3.563536
      px      :     1.253585
      py      :     1.154319
      dz2     :     0.008740  d :     0.034250
      dxz     :     0.008458
      dyz     :     0.005304
      dx2y2   :     0.006000
      dxy     :     0.005749
  2 C s       :     3.315303  s :     3.315303
      pz      :     0.827735  p :     2.854167
      px      :     1.157352
      py      :     0.869080
      dz2     :     0.024854  d :     0.089362
      dxz     :     0.034354
      dyz     :     0.015852
      dx2y2   :     0.007679
      dxy     :     0.006623
  3 C s       :     3.406895  s :     3.406895
      pz      :     1.123847  p :     2.954892
      px      :     0.866487
      py      :     0.964558
      dz2     :     0.016249  d :     0.056146
      dxz     :     0.018207
      dyz     :     0.005495
      dx2y2   :     0.008449
      dxy     :     0.007746
  4 C s       :     2.330975  s :     2.330975
      pz      :     0.930777  p :     3.011549
      px      :     1.224279
      py      :     0.856493
      dz2     :     0.017139  d :     0.059668
      dxz     :     0.016415
      dyz     :     0.011166
      dx2y2   :     0.007670
      dxy     :     0.007278
  5 C s       :     3.398946  s :     3.398946
      pz      :     1.085365  p :     2.721773
      px      :     0.513611
      py      :     1.122798
      dz2     :     0.013144  d :     0.073595
      dxz     :     0.030874
      dyz     :     0.010370
      dx2y2   :     0.011046
      dxy     :     0.008161
  6 N s       :     3.482258  s :     3.482258
      pz      :     1.049191  p :     3.391384
      px      :     1.235785
      py      :     1.106407
      dz2     :     0.038124  d :     0.138858
      dxz     :     0.045086
      dyz     :     0.029035
      dx2y2   :     0.011911
      dxy     :     0.014703
  7 O s       :     3.802223  s :     3.802223
      pz      :     1.024563  p :     4.343117
      px      :     1.840124
      py      :     1.478431
      dz2     :     0.009751  d :     0.018159
      dxz     :     0.003254
      dyz     :     0.004998
      dx2y2   :     0.000096
      dxy     :     0.000061
  8 O s       :     3.780749  s :     3.780749
      pz      :     1.550108  p :     4.312321
      px      :     1.329765
      py      :     1.432448
      dz2     :     0.002424  d :     0.020136
      dxz     :     0.007420
      dyz     :     0.002073
      dx2y2   :     0.004208
      dxy     :     0.004010
  9 F s       :     3.917979  s :     3.917979
      pz      :     1.399349  p :     5.197063
      px      :     1.918497
      py      :     1.879217
      dz2     :     0.003046  d :     0.005230
      dxz     :     0.000972
      dyz     :     0.001172
      dx2y2   :     0.000030
      dxy     :     0.000010
 10 H s       :     0.684072  s :     0.684072
      pz      :     0.004832  p :     0.023241
      px      :     0.014171
      py      :     0.004238
 11 H s       :     0.714739  s :     0.714739
      pz      :     0.016409  p :     0.025628
      px      :     0.004024
      py      :     0.005195
 12 H s       :     0.638032  s :     0.638032
      pz      :     0.007534  p :     0.025322
      px      :     0.013526
      py      :     0.004262
 13 C s       :     3.287048  s :     3.287048
      pz      :     0.997897  p :     3.084756
      px      :     1.054328
      py      :     1.032531
      dz2     :     0.010001  d :     0.052593
      dxz     :     0.015916
      dyz     :     0.008535
      dx2y2   :     0.014744
      dxy     :     0.003397
 14 H s       :     0.849051  s :     0.849051
      pz      :     0.005931  p :     0.022690
      px      :     0.011577
      py      :     0.005183
 15 H s       :     0.848156  s :     0.848156
      pz      :     0.008875  p :     0.022698
      px      :     0.008963
      py      :     0.004860
 16 H s       :     0.850554  s :     0.850554
      pz      :     0.005162  p :     0.022662
      px      :     0.004674
      py      :     0.012826
 17 S s       :     5.995880  s :     5.995880
      pz      :     3.305509  p :    10.926344
      px      :     3.955026
      py      :     3.665809
      dz2     :     0.008204  d :     0.031384
      dxz     :     0.004486
      dyz     :     0.014126
      dx2y2   :     0.002673
      dxy     :     0.001895


                     *******************************
                     * LOEWDIN POPULATION ANALYSIS *
                     *******************************

------------------------
LOEWDIN FRAGMENT CHARGES
------------------------
 Fragment   0 :  -0.014316
 Fragment   1 :  -0.035548
 Fragment   2 :  -0.347787
 Fragment   3 :  -0.602348

----------------------------
LOEWDIN FRAGMENT BOND ORDERS
----------------------------
                  0          1          2          3    
      0      57.246382   6.722023   0.011594   0.094739
      1       6.722023  44.211167   0.001686   0.016142
      2       0.011594   0.001686  15.401530   1.733558
      3       0.094739   0.016142   1.733558  16.602348

----------------------
LOEWDIN ATOMIC CHARGES
----------------------
   0 C :    0.081520
   1 N :   -0.081892
   2 C :    0.043439
   3 C :   -0.055574
   4 C :    0.063506
   5 C :   -0.065315
   6 N :    0.202366
   7 O :   -0.220675
   8 O :   -0.194151
   9 F :   -0.089066
  10 H :    0.085911
  11 H :    0.075864
  12 H :    0.104203
  13 C :   -0.354507
  14 H :    0.001999
  15 H :    0.002088
  16 H :    0.002634
  17 S :   -0.602348

-------------------------------
LOEWDIN REDUCED ORBITAL CHARGES
-------------------------------
  0 C s       :     2.731240  s :     2.731240
      pz      :     0.852087  p :     2.837596
      px      :     1.094402
      py      :     0.891106
      dz2     :     0.121405  d :     0.349644
      dxz     :     0.103943
      dyz     :     0.051954
      dx2y2   :     0.037095
      dxy     :     0.035248
  1 N s       :     3.107152  s :     3.107152
      pz      :     1.304543  p :     3.910206
      px      :     1.432652
      py      :     1.173011
      dz2     :     0.018948  d :     0.064534
      dxz     :     0.018111
      dyz     :     0.009171
      dx2y2   :     0.010561
      dxy     :     0.007742
  2 C s       :     2.775618  s :     2.775618
      pz      :     1.045365  p :     2.986833
      px      :     1.093534
      py      :     0.847934
      dz2     :     0.063734  d :     0.194110
      dxz     :     0.074081
      dyz     :     0.030505
      dx2y2   :     0.014921
      dxy     :     0.010869
  3 C s       :     2.770045  s :     2.770045
      pz      :     1.084045  p :     3.153945
      px      :     1.103541
      py      :     0.966359
      dz2     :     0.036331  d :     0.131584
      dxz     :     0.047111
      dyz     :     0.008671
      dx2y2   :     0.023107
      dxy     :     0.016365
  4 C s       :     2.771777  s :     2.771777
      pz      :     1.073528  p :     3.030120
      px      :     1.108076
      py      :     0.848516
      dz2     :     0.042438  d :     0.134597
      dxz     :     0.040818
      dyz     :     0.022563
      dx2y2   :     0.016101
      dxy     :     0.012677
  5 C s       :     2.754067  s :     2.754067
      pz      :     1.090734  p :     3.129345
      px      :     0.959336
      py      :     1.079276
      dz2     :     0.039576  d :     0.181903
      dxz     :     0.073907
      dyz     :     0.020123
      dx2y2   :     0.030911
      dxy     :     0.017386
  6 N s       :     2.998035  s :     2.998035
      pz      :     1.219919  p :     3.530924
      px      :     1.230773
      py      :     1.080231
      dz2     :     0.080721  d :     0.268675
      dxz     :     0.092525
      dyz     :     0.045881
      dx2y2   :     0.025600
      dxy     :     0.023948
  7 O s       :     3.574458  s :     3.574458
      pz      :     1.275529  p :     4.614598
      px      :     1.848025
      py      :     1.491044
      dz2     :     0.020462  d :     0.031619
      dxz     :     0.004815
      dyz     :     0.006161
      dx2y2   :     0.000116
      dxy     :     0.000065
  8 O s       :     3.548762  s :     3.548762
      pz      :     1.674109  p :     4.610124
      px      :     1.486278
      py      :     1.449737
      dz2     :     0.003681  d :     0.035265
      dxz     :     0.015299
      dyz     :     0.002814
      dx2y2   :     0.008224
      dxy     :     0.005248
  9 F s       :     3.713833  s :     3.713833
      pz      :     1.539736  p :     5.367976
      px      :     1.937158
      py      :     1.891082
      dz2     :     0.004688  d :     0.007257
      dxz     :     0.001170
      dyz     :     0.001350
      dx2y2   :     0.000040
      dxy     :     0.000010
 10 H s       :     0.846387  s :     0.846387
      pz      :     0.014739  p :     0.067702
      px      :     0.041633
      py      :     0.011330
 11 H s       :     0.849954  s :     0.849954
      pz      :     0.047880  p :     0.074182
      px      :     0.012180
      py      :     0.014121
 12 H s       :     0.824345  s :     0.824345
      pz      :     0.022077  p :     0.071452
      px      :     0.038467
      py      :     0.010908
 13 C s       :     2.857628  s :     2.857628
      pz      :     1.143995  p :     3.390066
      px      :     1.118632
      py      :     1.127439
      dz2     :     0.020647  d :     0.106813
      dxz     :     0.031802
      dyz     :     0.019083
      dx2y2   :     0.029195
      dxy     :     0.006086
 14 H s       :     0.926212  s :     0.926212
      pz      :     0.019151  p :     0.071789
      px      :     0.037159
      py      :     0.015479
 15 H s       :     0.926128  s :     0.926128
      pz      :     0.029368  p :     0.071784
      px      :     0.027967
      py      :     0.014449
 16 H s       :     0.925583  s :     0.925583
      pz      :     0.015818  p :     0.071784
      px      :     0.013575
      py      :     0.042391
 17 S s       :     5.600134  s :     5.600134
      pz      :     3.404797  p :    10.964954
      px      :     3.898983
      py      :     3.661174
      dz2     :     0.009636  d :     0.037260
      dxz     :     0.005192
      dyz     :     0.017127
      dx2y2   :     0.003127
      dxy     :     0.002178


                      *****************************
                      * MAYER POPULATION ANALYSIS *
                      *****************************

  NA   - Mulliken gross atomic population
  ZA   - Total nuclear charge
  QA   - Mulliken gross atomic charge
  VA   - Mayer's total valence
  BVA  - Mayer's bonded valence
  FA   - Mayer's free valence

  ATOM       NA         ZA         QA         VA         BVA        FA
  0 C      6.0262     6.0000    -0.0262     4.2263     4.2263    -0.0000
  1 N      7.1862     7.0000    -0.1862     2.7613     2.7613    -0.0000
  2 C      6.2588     6.0000    -0.2588     3.8802     3.8802     0.0000
  3 C      6.4179     6.0000    -0.4179     4.5431     4.5431    -0.0000
  4 C      5.4022     6.0000     0.5978     3.7474     3.7474     0.0000
  5 C      6.1943     6.0000    -0.1943     3.3143     3.3143    -0.0000
  6 N      7.0125     7.0000    -0.0125     4.0381     4.0381    -0.0000
  7 O      8.1635     8.0000    -0.1635     2.1133     2.1133    -0.0000
  8 O      8.1132     8.0000    -0.1132     2.2182     2.2182     0.0000
  9 F      9.1203     9.0000    -0.1203     0.9245     0.9245    -0.0000
 10 H      0.7073     1.0000     0.2927     0.8659     0.8659     0.0000
 11 H      0.7404     1.0000     0.2596     0.9482     0.9482    -0.0000
 12 H      0.6634     1.0000     0.3366     0.8143     0.8143     0.0000
 13 C      6.4244     6.0000    -0.4244     3.6144     3.6144    -0.0000
 14 H      0.8717     1.0000     0.1283     0.9384     0.9384     0.0000
 15 H      0.8709     1.0000     0.1291     0.9353     0.9353     0.0000
 16 H      0.8732     1.0000     0.1268     0.9473     0.9473     0.0000
 17 S     16.9536    16.0000    -0.9536     0.6668     0.6668     0.0000

  Mayer bond orders larger than 0.100000
B(  0-C ,  1-N ) :   1.3272 B(  0-C ,  2-C ) :   0.1810 B(  0-C ,  3-C ) :   0.1211 
B(  0-C ,  4-C ) :   0.1954 B(  0-C ,  5-C ) :   1.2434 B(  0-C ,  6-N ) :  -0.1724 
B(  0-C ,  7-O ) :   0.1053 B(  0-C ,  8-O ) :  -0.1246 B(  0-C ,  9-F ) :   1.3718 
B(  1-N ,  2-C ) :   1.2073 B(  1-N ,  5-C ) :   0.1679 B(  2-C ,  3-C ) :   1.5702 
B(  2-C , 10-H ) :   0.9011 B(  3-C ,  4-C ) :   1.3473 B(  3-C ,  5-C ) :   0.1998 
B(  3-C ,  8-O ) :   0.1664 B(  3-C , 11-H ) :   0.8986 B(  3-C , 17-S ) :   0.1253 
B(  4-C ,  5-C ) :   1.4640 B(  4-C ,  8-O ) :   0.2574 B(  4-C ,  9-F ) :  -0.1289 
B(  4-C , 12-H ) :   0.7442 B(  5-C ,  6-N ) :   0.6557 B(  5-C ,  7-O ) :  -0.1148 
B(  5-C ,  8-O ) :  -0.2090 B(  5-C ,  9-F ) :  -0.3531 B(  5-C , 12-H ) :   0.1277 
B(  6-N ,  7-O ) :   1.8253 B(  6-N ,  8-O ) :   1.8686 B(  7-O ,  8-O ) :   0.2492 
B( 13-C , 14-H ) :   0.9816 B( 13-C , 15-H ) :   0.9838 B( 13-C , 16-H ) :   0.9829 
B( 13-C , 17-S ) :   0.6719 

-------
TIMINGS
-------

Total SCF time: 0 days 0 hours 0 min 15 sec 

Total time                  ....      15.319 sec
Sum of individual times     ....      14.148 sec  ( 92.4%)

Fock matrix formation       ....      11.645 sec  ( 76.0%)
  Split-RI-J                ....       0.710 sec  (  6.1% of F)
  Chain of spheres X        ....       8.726 sec  ( 74.9% of F)
  XC integration            ....       1.205 sec  ( 10.3% of F)
    Basis function eval.    ....       0.092 sec  (  7.6% of XC)
    Density eval.           ....       0.098 sec  (  8.1% of XC)
    XC-Functional eval.     ....       0.214 sec  ( 17.8% of XC)
    XC-Potential eval.      ....       0.074 sec  (  6.1% of XC)
Diagonalization             ....       0.028 sec  (  0.2%)
Density matrix formation    ....       0.007 sec  (  0.0%)
Population analysis         ....       0.098 sec  (  0.6%)
Initial guess               ....       0.040 sec  (  0.3%)
Orbital Transformation      ....       0.000 sec  (  0.0%)
Orbital Orthonormalization  ....       0.021 sec  (  0.1%)
DIIS solution               ....       0.014 sec  (  0.1%)
SOSCF solution              ....       0.223 sec  (  1.5%)
Grid generation             ....       2.093 sec  ( 13.7%)

Maximum memory used throughout the entire SCF-calculation: 69.0 MB

-------------------------   --------------------
FINAL SINGLE POINT ENERGY      -990.266077908510
-------------------------   --------------------

                                *** OPTIMIZATION RUN DONE ***

                            ***************************************
                            *     ORCA property calculations      *
                            ***************************************

                                    ---------------------
                                    Active property flags
                                    ---------------------
   (+) Dipole Moment


------------------------------------------------------------------------------
                       ORCA ELECTRIC PROPERTIES CALCULATION
------------------------------------------------------------------------------

Dipole Moment Calculation                       ... on
Quadrupole Moment Calculation                   ... off
Polarizability Calculation                      ... off
GBWName                                         ... structure_opt.gbw
Electron density                                ... structure_opt.scfp
The origin for moment calculation is the CENTER OF MASS  = (-0.611932,  2.213847  6.283885)

-------------
DIPOLE MOMENT
-------------
                                X             Y             Z
Electronic contribution:     -7.96968     -13.79231     -19.21584
Nuclear contribution   :      6.37353       8.72623      18.21715
                        -----------------------------------------
Total Dipole Moment    :     -1.59615      -5.06608      -0.99869
                        -----------------------------------------
Magnitude (a.u.)       :      5.40465
Magnitude (Debye)      :     13.73752



--------------------
Rotational spectrum 
--------------------
 
Rotational constants in cm-1:     0.038412     0.010491     0.009499 
Rotational constants in MHz :  1151.569998   314.504939   284.778051 

 Dipole components along the rotational axes: 
x,y,z [a.u.] :    -4.312261    -1.052246     3.083406 
x,y,z [Debye]:   -10.960896    -2.674598     7.837394 

 

Timings for individual modules:

Sum of individual times         ...      893.315 sec (=  14.889 min)
GTO integral calculation        ...       50.005 sec (=   0.833 min)   5.6 %
SCF iterations                  ...      694.447 sec (=  11.574 min)  77.7 %
SCF Gradient evaluation         ...      147.924 sec (=   2.465 min)  16.6 %
Geometry relaxation             ...        0.938 sec (=   0.016 min)   0.1 %
                             ****ORCA TERMINATED NORMALLY****
TOTAL RUN TIME: 0 days 0 hours 15 minutes 49 seconds 544 msec
