
                                 *****************
                                 * O   R   C   A *
                                 *****************

                                            #,                                       
                                            ###                                      
                                            ####                                     
                                            #####                                    
                                            ######                                   
                                           ########,                                 
                                     ,,################,,,,,                         
                               ,,#################################,,                 
                          ,,##########################################,,             
                       ,#########################################, ''#####,          
                    ,#############################################,,   '####,        
                  ,##################################################,,,,####,       
                ,###########''''           ''''###############################       
              ,#####''   ,,,,##########,,,,          '''####'''          '####       
            ,##' ,,,,###########################,,,                        '##       
           ' ,,###''''                  '''############,,,                           
         ,,##''                                '''############,,,,        ,,,,,,###''
      ,#''                                            '''#######################'''  
     '                                                          ''''####''''         
             ,#######,   #######,   ,#######,      ##                                
            ,#'     '#,  ##    ##  ,#'     '#,    #''#        ######   ,####,        
            ##       ##  ##   ,#'  ##            #'  '#       #        #'  '#        
            ##       ##  #######   ##           ,######,      #####,   #    #        
            '#,     ,#'  ##    ##  '#,     ,#' ,#      #,         ##   #,  ,#        
             '#######'   ##     ##  '#######'  #'      '#     #####' # '####'        



                  #######################################################
                  #                        -***-                        #
                  #          Department of theory and spectroscopy      #
                  #    Directorship and core code : Frank Neese         #
                  #        Max Planck Institute fuer Kohlenforschung    #
                  #                Kaiser Wilhelm Platz 1               #
                  #                 D-45470 Muelheim/Ruhr               #
                  #                      Germany                        #
                  #                                                     #
                  #                  All rights reserved                #
                  #                        -***-                        #
                  #######################################################


                         Program Version 5.0.4 -  RELEASE  -


 With contributions from (in alphabetic order):
   Daniel Aravena         : Magnetic Suceptibility
   Michael Atanasov       : Ab Initio Ligand Field Theory (pilot matlab implementation)
   Alexander A. Auer      : GIAO ZORA, VPT2 properties, NMR spectrum
   Ute Becker             : Parallelization
   Giovanni Bistoni       : ED, misc. LED, open-shell LED, HFLD
   Martin Brehm           : Molecular dynamics
   Dmytro Bykov           : SCF Hessian
   Vijay G. Chilkuri      : MRCI spin determinant printing, contributions to CSF-ICE
   Dipayan Datta          : RHF DLPNO-CCSD density
   Achintya Kumar Dutta   : EOM-CC, STEOM-CC
   Dmitry Ganyushin       : Spin-Orbit,Spin-Spin,Magnetic field MRCI
   Miquel Garcia          : C-PCM and meta-GGA Hessian, CC/C-PCM, Gaussian charge scheme
   Yang Guo               : DLPNO-NEVPT2, F12-NEVPT2, CIM, IAO-localization
   Andreas Hansen         : Spin unrestricted coupled pair/coupled cluster methods
   Benjamin Helmich-Paris : MC-RPA, TRAH-SCF, COSX integrals
   Lee Huntington         : MR-EOM, pCC
   Robert Izsak           : Overlap fitted RIJCOSX, COSX-SCS-MP3, EOM
   Marcus Kettner         : VPT2
   Christian Kollmar      : KDIIS, OOCD, Brueckner-CCSD(T), CCSD density, CASPT2, CASPT2-K
   Simone Kossmann        : Meta GGA functionals, TD-DFT gradient, OOMP2, MP2 Hessian
   Martin Krupicka        : Initial AUTO-CI
   Lucas Lang             : DCDCAS
   Marvin Lechner         : AUTO-CI (C++ implementation), FIC-MRCC
   Dagmar Lenk            : GEPOL surface, SMD
   Dimitrios Liakos       : Extrapolation schemes; Compound Job, initial MDCI parallelization
   Dimitrios Manganas     : Further ROCIS development; embedding schemes
   Dimitrios Pantazis     : SARC Basis sets
   Anastasios Papadopoulos: AUTO-CI, single reference methods and gradients
   Taras Petrenko         : DFT Hessian,TD-DFT gradient, ASA, ECA, R-Raman, ABS, FL, XAS/XES, NRVS
   Peter Pinski           : DLPNO-MP2, DLPNO-MP2 Gradient
   Christoph Reimann      : Effective Core Potentials
   Marius Retegan         : Local ZFS, SOC
   Christoph Riplinger    : Optimizer, TS searches, QM/MM, DLPNO-CCSD(T), (RO)-DLPNO pert. Triples
   Tobias Risthaus        : Range-separated hybrids, TD-DFT gradient, RPA, STAB
   Michael Roemelt        : Original ROCIS implementation
   Masaaki Saitow         : Open-shell DLPNO-CCSD energy and density
   Barbara Sandhoefer     : DKH picture change effects
   Avijit Sen             : IP-ROCIS
   Kantharuban Sivalingam : CASSCF convergence, NEVPT2, FIC-MRCI
   Bernardo de Souza      : ESD, SOC TD-DFT
   Georgi Stoychev        : AutoAux, RI-MP2 NMR, DLPNO-MP2 response
   Willem Van den Heuvel  : Paramagnetic NMR
   Boris Wezisla          : Elementary symmetry handling
   Frank Wennmohs         : Technical directorship


 We gratefully acknowledge several colleagues who have allowed us to
 interface, adapt or use parts of their codes:
   Stefan Grimme, W. Hujo, H. Kruse, P. Pracht,  : VdW corrections, initial TS optimization,
                  C. Bannwarth, S. Ehlert          DFT functionals, gCP, sTDA/sTD-DF
   Ed Valeev, F. Pavosevic, A. Kumar             : LibInt (2-el integral package), F12 methods
   Garnet Chan, S. Sharma, J. Yang, R. Olivares  : DMRG
   Ulf Ekstrom                                   : XCFun DFT Library
   Mihaly Kallay                                 : mrcc  (arbitrary order and MRCC methods)
   Jiri Pittner, Ondrej Demel                    : Mk-CCSD
   Frank Weinhold                                : gennbo (NPA and NBO analysis)
   Christopher J. Cramer and Donald G. Truhlar   : smd solvation model
   Lars Goerigk                                  : TD-DFT with DH, B97 family of functionals
   V. Asgeirsson, H. Jonsson                     : NEB implementation
   FAccTs GmbH                                   : IRC, NEB, NEB-TS, DLPNO-Multilevel, CI-OPT
                                                   MM, QMMM, 2- and 3-layer-ONIOM, Crystal-QMMM,
                                                   LR-CPCM, SF, NACMEs, symmetry and pop. for TD-DFT,
                                                   nearIR, NL-DFT gradient (VV10), updates on ESD,
                                                   ML-optimized integration grids
   S Lehtola, MJT Oliveira, MAL Marques          : LibXC Library
   Liviu Ungur et al                             : ANISO software


 Your calculation uses the libint2 library for the computation of 2-el integrals
 For citations please refer to: http://libint.valeyev.net

 Your ORCA version has been built with support for libXC version: 5.1.0
 For citations please refer to: https://tddft.org/programs/libxc/

 This ORCA versions uses:
   CBLAS   interface :  Fast vector & matrix operations
   LAPACKE interface :  Fast linear algebra routines
   SCALAPACK package :  Parallel linear algebra routines
   Shared memory     :  Shared parallel matrices
   BLAS/LAPACK       :  OpenBLAS 0.3.15  USE64BITINT DYNAMIC_ARCH NO_AFFINITY SkylakeX SINGLE_THREADED
        Core in use  :  SkylakeX
   Copyright (c) 2011-2014, The OpenBLAS Project




***************************************
The coordinates will be read from file: reactants.xyz
***************************************


Your calculation utilizes the SMD solvation module
Please cite in your paper:
A.V. Marenich, C.J. Cramer, D.G. Truhlar J. Phys. Chem. B, 113, (2009), 6378 

XCFun DFT library Copyright 2009-2010 Ulf Ekstrom and contributors.
See http://admol.org/xcfun for more information.
This is free software; see the source code for copying conditions.
There is ABSOLUTELY NO WARRANTY; not even for MERCHANTABILITY or FITNESS FOR A PARTICULAR PURPOSE.
For details see the documentation.
Scientific users of this library should cite U. Ekstrom, L. Visscher, R. Bast, A. J. Thorvaldsen and K. Ruud;
J.Chem.Theor.Comp. 2010, DOI: 10.1021/ct100117s
XCFun Version 0.99 

================================================================================

----- Orbital basis set information -----
Your calculation utilizes the basis: 6-311++G**
   H, Li - Ne  : R. Krishnan, J. S. Binkley, R. Seeger and J. A. Pople, J. Chem. Phys. 72, 650 (1980).
   Na - Ar     : A. D. McLean and G. S. Chandler J. Chem. Phys. 72, 5639, (1980).
   K  - Ca     : J.-P. Blaudeau, M. P. McGrath, L. A. Curtiss and L. Radom, J. Chem. Phys. 107, 5016 (1997).
   Ga - Kr     : L. A. Curtiss, M. P. McGrath, J.-P. Blandeau, N. E. Davis, R. C. Binning and L. Radom, J. Chem. Phys. 103, 6104 (1995).
   Pol./Diff.
   H, Li - Cl  : T. Clark, J. Chandrasekhar and P. v. R. Schleyer, J. Comp. Chem. 4, 294 (1983).
   H - Ne      : M. J. Frisch, J. A. Pople and J. S. Binkley, J. Chem. Phys. 80, 3265 (1984).

----- AuxJ basis set information -----
Your calculation utilizes the auxiliary basis: def2/J
   F. Weigend, Phys. Chem. Chem. Phys. 8, 1057 (2006).

================================================================================
                                        WARNINGS
                       Please study these warnings very carefully!
================================================================================


WARNING: Geometry Optimization
  ===> : Switching off AutoStart
         For restart on a previous wavefunction, please use MOREAD

INFO   : the flag for use of the SHARK integral package has been found!

================================================================================
                                       INPUT FILE
================================================================================
NAME = structure_opt.inp
|  1> !wb97x 6-311++G** OPT CPCM(WATER)
|  2> %maxcore  3500
|  3> %pal
|  4> nprocs 24
|  5> end
|  6> %cpcm
|  7> smd true
|  8> SMDsolvent "water"
|  9> end
| 10> %geom
| 11> ConstrainFragments {1} end
| 12> ConstrainFragments {4} end
| 13> ConnectFragments
| 14> { 1 2 C 5 7 }
| 15> { 1 2 C 0 9 }
| 16> { 2 3 C 13 5 }
| 17> { 3 4 C 13 17 }
| 18> end
| 19> end
| 20> * XYZfile -1 1 reactants.xyz
| 21> %geom
| 22> Fragments
| 23> 1 {0:5} end
| 24> 2 {6:12} end
| 25> 3 {13:16} end
| 26> 4 {17} end
| 27> end
| 28> end
| 29> 
| 30>                          ****END OF INPUT****
================================================================================

                       *****************************
                       * Geometry Optimization Run *
                       *****************************

Geometry optimization settings:
Update method            Update   .... BFGS
Choice of coordinates    CoordSys .... Z-matrix Internals
Initial Hessian          InHess   .... Almoef's Model

Convergence Tolerances:
Energy Change            TolE     ....  5.0000e-06 Eh
Max. Gradient            TolMAXG  ....  3.0000e-04 Eh/bohr
RMS Gradient             TolRMSG  ....  1.0000e-04 Eh/bohr
Max. Displacement        TolMAXD  ....  4.0000e-03 bohr
RMS Displacement         TolRMSD  ....  2.0000e-03 bohr
Strict Convergence                ....  False
------------------------------------------------------------------------------
                        ORCA OPTIMIZATION COORDINATE SETUP
------------------------------------------------------------------------------

The optimization will be done in new redundant internal coordinates
Making redundant internal coordinates   ...  (new redundants) done
Evaluating the initial hessian          ...  (Almloef) done
Evaluating the coordinates              ...  done
Calculating the B-matrix                .... done
Calculating the G-matrix                .... done
Diagonalizing the G-matrix              .... done
Imposing constraints:
 Iter   0:  RMS(Cart)=    0.0000000000 RMS(Int)=    0.0000000000
CONVERGED
Small eigenvalue found = 4.042e-03
Small eigenvalue found = 7.671e-03
Small eigenvalue found = 1.382e-02
Small eigenvalue found = 2.968e-02
The first mode is                       ....   56
The number of degrees of freedom        ....   48
Storing new coordinates                 .... done

    -----------------------------------------------------------------
                    Redundant Internal Coordinates


    -----------------------------------------------------------------
         Definition                    Initial Value    Approx d2E/dq
    -----------------------------------------------------------------
      1. B(N   1,C   0)                  1.3611         0.622347   
      2. B(C   2,N   1)                  1.3582         0.628875   
      3. B(C   3,C   2)                  1.3949         0.613658   
      4. B(C   4,C   3)                  1.3934         0.616971   
      5. B(C   5,C   0)                  1.4122         0.575774   
      6. B(C   5,C   4)                  1.4061         0.588917   
      7. B(O   7,C   5)                  2.3435         0.016853 C 
      8. B(O   7,N   6)                  1.2480         0.844503   
      9. B(O   8,N   6)                  1.3769         0.525866   
     10. B(F   9,C   0)                  1.3500         0.602260 C 
     11. B(F   9,N   6)                  2.8678         0.002044   
     12. B(F   9,O   7)                  2.5821         0.005837   
     13. B(H  11,H  10)                  2.4818         0.000415   
     14. B(H  12,O   8)                  2.5152         0.001717   
     15. B(H  12,H  11)                  2.4663         0.000439   
     16. B(H  12,N   6)                  2.7029         0.000861   
     17. B(C  13,H  10)                  6.4646         0.000000 C 
     18. B(H  14,C  13)                  1.0941         0.354691   
     19. B(H  15,C  13)                  1.0940         0.354791   
     20. B(H  16,C  13)                  1.0937         0.355266   
     21. B(S  17,C  13)                  1.8030         0.369495 C 
     22. A(C   5,C   0,F   9)          121.1725         0.421471 C 
     23. A(N   1,C   0,C   5)          120.1571         0.425830   
     24. A(N   1,C   0,F   9)          118.6704         0.424592 C 
     25. A(C   0,N   1,C   2)          121.9524         0.429796   
     26. A(N   1,C   2,C   3)          120.0262         0.431531   
     27. A(C   2,C   3,C   4)          119.3498         0.432882   
     28. A(C   3,C   4,C   5)          120.4718         0.429694   
     29. A(C   4,C   5,O   7)          147.4261         0.238582 C 
     30. A(C   0,C   5,O   7)           94.5313         0.237820 C 
     31. A(C   0,C   5,C   4)          118.0425         0.424407   
     32. A(O   8,N   6,H  12)           67.2752         0.152046   
     33. A(O   7,N   6,H  12)          174.2234         0.159181   
     34. A(O   7,N   6,O   8)          118.5014         0.433822   
     35. A(F   9,N   6,H  12)          110.0144         0.106848   
     36. A(O   7,N   6,F   9)           64.2090         0.186619   
     37. A(N   6,O   7,F   9)           89.9947         0.212791   
     38. A(C   5,O   7,N   6)           31.7456         0.248611 C 
     39. A(C   5,O   7,F   9)           58.2491         0.140475 C 
     40. A(N   6,O   8,H  12)           82.3972         0.162696   
     41. A(N   6,F   9,O   7)           25.7962         0.120482   
     42. A(C   0,F   9,O   7)           86.0471         0.203997 C 
     43. A(C   0,F   9,N   6)           60.2509         0.179684 C 
     44. A(H  11,H  10,C  13)           93.5322         0.089400 C 
     45. A(H  10,H  11,H  12)          119.7063         0.095112   
     46. A(N   6,H  12,O   8)           30.3275         0.103999   
     47. A(N   6,H  12,H  11)          126.7169         0.097913   
     48. A(O   8,H  12,H  11)          157.0445         0.099419   
     49. A(H  14,C  13,H  15)          109.0508         0.289474   
     50. A(H  14,C  13,H  16)          108.9008         0.289535   
     51. A(H  15,C  13,H  16)          109.0147         0.289548   
     52. A(H  10,C  13,H  14)          131.1498         0.091305 C 
     53. A(H  10,C  13,H  15)          113.7465         0.091305 C 
     54. A(H  10,C  13,H  16)           78.4003         0.091306 C 
     55. A(H  14,C  13,S  17)          109.9534         0.339355 C 
     56. A(H  15,C  13,S  17)          109.9692         0.339371 C 
     57. A(H  16,C  13,S  17)          109.9257         0.339447 C 
     58. A(H  10,C  13,S  17)           32.8159         0.091879   
     59. D(C   2,N   1,C   0,C   5)     -0.1041         0.028432   
     60. D(C   2,N   1,C   0,F   9)    179.9112         0.028432 C 
     61. D(C   3,C   2,N   1,C   0)      0.1066         0.025783   
     62. D(C   4,C   3,C   2,N   1)     -0.0956         0.020965   
     63. D(C   5,C   4,C   3,C   2)      0.0854         0.021202   
     64. D(C   4,C   5,C   0,N   1)      0.0896         0.022761   
     65. D(O   7,C   5,C   0,N   1)    179.9933         0.022761 C 
     66. D(O   7,C   5,C   4,C   3)   -179.9036         0.021656 C 
     67. D(C   0,C   5,C   4,C   3)     -0.0818         0.021656   
     68. D(C   4,C   5,C   0,F   9)   -179.9260         0.022761 C 
     69. D(O   7,C   5,C   0,F   9)     -0.0223         0.022761 C 
     70. D(F   9,O   7,C   5,C   0)      0.0117         0.001517 C 
     71. D(N   6,O   7,C   5,C   0)   -179.9521         0.001517 C 
     72. D(N   6,O   7,C   5,C   4)     -0.1099         0.001517 C 
     73. D(F   9,O   7,C   5,C   4)    179.8539         0.001517 C 
     74. D(F   9,O   7,N   6,O   8)    179.9932         0.079747   
     75. D(F   9,O   7,N   6,H  12)      0.1568         0.079747   
     76. D(C   5,O   7,N   6,O   8)   -179.9761         0.079747 C 
     77. D(C   5,O   7,N   6,H  12)      0.1876         0.079747 C 
     78. D(C   5,O   7,N   6,F   9)      0.0308         0.079747 C 
     79. D(H  12,O   8,N   6,O   7)   -179.9821         0.025649   
     80. D(C   0,F   9,O   7,C   5)     -0.0123         0.001503 C 
     81. D(N   6,F   9,C   0,C   5)      0.0236         0.032536 C 
     82. D(O   7,F   9,C   0,N   1)   -179.9952         0.032536 C 
     83. D(O   7,F   9,C   0,C   5)      0.0202         0.032536 C 
     84. D(O   7,F   9,N   6,H  12)   -179.9832         0.001500   
     85. D(C   0,F   9,N   6,O   7)   -179.9922         0.001500 C 
     86. D(C   0,F   9,N   6,H  12)      0.0246         0.001500 C 
     87. D(N   6,F   9,O   7,C   5)     -0.0190         0.001503 C 
     88. D(N   6,F   9,C   0,N   1)   -179.9918         0.032536 C 
     89. D(C   0,F   9,O   7,N   6)      0.0068         0.001503 C 
     90. D(O   7,F   9,O   8,H  12)   -179.9897         0.001500   
     91. D(C   0,F   9,O   8,H  12)      0.0232         0.001500 C 
     92. D(H  12,H  11,H  10,C  13)   -101.5702         0.001501 C 
     93. D(O   8,H  12,N   6,O   7)    179.8441         0.001501   
     94. D(O   8,H  12,N   6,F   9)    179.9943         0.001501   
     95. D(H  11,H  12,N   6,O   7)     -0.1748         0.001501   
     96. D(H  11,H  12,N   6,O   8)    179.9811         0.001501   
     97. D(H  11,H  12,N   6,F   9)     -0.0245         0.001501   
     98. D(H  11,H  12,O   8,N   6)     -0.0388         0.001502   
     99. D(N   6,H  12,H  11,H  10)      0.0466         0.001502   
    100. D(O   8,H  12,H  11,H  10)      0.0710         0.001502   
    101. D(H  14,C  13,H  10,H  11)    155.4337         0.001500 C 
    102. D(H  15,C  13,H  10,H  11)      6.3375         0.001500 C 
    103. D(H  16,C  13,H  10,H  11)    -99.5091         0.001500 C 
    104. D(S  17,C  13,H  10,H  11)     96.6941         0.001500   
    -----------------------------------------------------------------

Number of atoms                         .... 18
Number of degrees of freedom            .... 104

         *************************************************************
         *                GEOMETRY OPTIMIZATION CYCLE   1            *
         *************************************************************
---------------------------------
CARTESIAN COORDINATES (ANGSTROEM)
---------------------------------
  C      0.000000    0.000000    1.820000
  N      1.178000   -0.196000    2.473000
  C      1.255000   -0.207000    3.829000
  C      0.105000   -0.016000    4.595000
  C     -1.116000    0.187000    3.955000
  C     -1.192000    0.198000    2.551000
  N     -2.456000    0.409000    1.893000
  O     -2.541000    0.423000    0.648000
  O     -3.602000    0.600000    2.632000
  F      0.000000    0.000000    0.470000
  H      2.209000   -0.366000    4.313000
  H      0.163000   -0.026000    5.676000
  H     -2.005000    0.335000    4.557000
  C      2.201000   -6.773000    5.174000
  H      2.626000   -7.581000    4.571000
  H      1.316000   -7.146000    5.698000
  H      2.943000   -6.453000    5.911000
  S      1.750000   -5.386000    4.114000

----------------------------
CARTESIAN COORDINATES (A.U.)
----------------------------
  NO LB      ZA    FRAG     MASS         X           Y           Z
   0 C     6.0000    1    12.011    0.000000    0.000000    3.439302
   1 N     7.0000    1    14.007    2.226097   -0.370386    4.673293
   2 C     6.0000    1    12.011    2.371606   -0.391173    7.235761
   3 C     6.0000    1    12.011    0.198421   -0.030236    8.683292
   4 C     6.0000    1    12.011   -2.108934    0.353379    7.473867
   5 C     6.0000    1    12.011   -2.252554    0.374166    4.820691
   6 N     7.0000    2    14.007   -4.641167    0.772898    3.577252
   7 O     8.0000    2    15.999   -4.801794    0.799354    1.224543
   8 O     8.0000    2    15.999   -6.806794    1.133836    4.973759
   9 F     9.0000    2    18.998    0.000000    0.000000    0.888171
  10 H     1.0000    2     1.008    4.174405   -0.691640    8.150389
  11 H     1.0000    2     1.008    0.308025   -0.049133   10.726086
  12 H     1.0000    2     1.008   -3.788901    0.633058    8.611482
  13 C     6.0000    3    12.011    4.159287  -12.799115    9.777443
  14 H     1.0000    3     1.008    4.962421  -14.326014    8.637938
  15 H     1.0000    3     1.008    2.486880  -13.503983   10.767660
  16 H     1.0000    3     1.008    5.561464  -12.194403   11.170171
  17 S    16.0000    4    32.060    3.307021  -10.178065    7.774333

----------------------------------------------
CARTESIAN COORDINATES OF FRAGMENTS (ANGSTROEM)
----------------------------------------------

 FRAGMENT 1 
  C     0.000000    0.000000    1.820000
  N     1.178000   -0.196000    2.473000
  C     1.255000   -0.207000    3.829000
  C     0.105000   -0.016000    4.595000
  C    -1.116000    0.187000    3.955000
  C    -1.192000    0.198000    2.551000

 FRAGMENT 2 
  N    -2.456000    0.409000    1.893000
  O    -2.541000    0.423000    0.648000
  O    -3.602000    0.600000    2.632000
  F     0.000000    0.000000    0.470000
  H     2.209000   -0.366000    4.313000
  H     0.163000   -0.026000    5.676000
  H    -2.005000    0.335000    4.557000

 FRAGMENT 3 
  C     2.201000   -6.773000    5.174000
  H     2.626000   -7.581000    4.571000
  H     1.316000   -7.146000    5.698000
  H     2.943000   -6.453000    5.911000

 FRAGMENT 4 
  S     1.750000   -5.386000    4.114000

--------------------------------
INTERNAL COORDINATES (ANGSTROEM)
--------------------------------
 C      0   0   0     0.000000000000     0.00000000     0.00000000
 N      1   0   0     1.361069065110     0.00000000     0.00000000
 C      2   1   0     1.358228993948   121.95243626     0.00000000
 C      3   2   1     1.394896770374   120.02620694     0.10655554
 C      4   3   2     1.393431017309   119.34983770   359.90435571
 C      5   4   3     1.406098502951   120.47178172     0.08537773
 N      6   5   4     1.440548853736   120.30882193   180.03842131
 O      7   6   5     1.247976762604   121.13704526   179.93147861
 O      7   6   5     1.376923382037   120.36156660   359.90709941
 F      1   2   3     1.350000000000   118.67037638   179.91115691
 H      3   2   1     1.081504969938   119.86701156   179.98746005
 H      4   3   2     1.082601034546   120.19197482   179.89186186
 H      5   4   3     1.083803026384   118.91636700   180.02085854
 C     11   3   2     6.464598518083   101.78385751   267.35159134
 H     14  11   3     1.094119737506   131.14977294    95.46404940
 H     14  11   3     1.094042960765   113.74654386   306.36790778
 H     14  11   3     1.093678654816    78.40033747   200.52126245
 S     14  11   3     1.802989184660    32.81585992    36.72447672

---------------------------
INTERNAL COORDINATES (A.U.)
---------------------------
 C      0   0   0     0.000000000000     0.00000000     0.00000000
 N      1   0   0     2.572047782411     0.00000000     0.00000000
 C      2   1   0     2.566680825712   121.95243626     0.00000000
 C      3   2   1     2.635972881098   120.02620694     0.10655554
 C      4   3   2     2.633203009226   119.34983770   359.90435571
 C      5   4   3     2.657141087893   120.47178172     0.08537773
 N      6   5   4     2.722242816095   120.30882193   180.03842131
 O      7   6   5     2.358334302820   121.13704526   179.93147861
 O      7   6   5     2.602008099442   120.36156660   359.90709941
 F      1   2   3     2.551130280794   118.67037638   179.91115691
 H      3   2   1     2.043748205657   119.86701156   179.98746005
 H      4   3   2     2.045819467592   120.19197482   179.89186186
 H      5   4   3     2.048090902982   118.91636700   180.02085854
 C     11   3   2    12.216320764930   101.78385751   267.35159134
 H     14  11   3     2.067586661604   131.14977294    95.46404940
 H     14  11   3     2.067441574591   113.74654386   306.36790778
 H     14  11   3     2.066753136118    78.40033747   200.52126245
 S     14  11   3     3.407155781429    32.81585992    36.72447672

---------------------
BASIS SET INFORMATION
---------------------
There are 6 groups of distinct atoms

 Group   1 Type C   : 12s6p1d contracted to 5s4p1d pattern {63111/3111/1}
 Group   2 Type N   : 12s6p1d contracted to 5s4p1d pattern {63111/3111/1}
 Group   3 Type O   : 12s6p1d contracted to 5s4p1d pattern {63111/3111/1}
 Group   4 Type F   : 12s6p1d contracted to 5s4p1d pattern {63111/3111/1}
 Group   5 Type H   : 6s1p contracted to 4s1p pattern {3111/1}
 Group   6 Type S   : 14s10p1d contracted to 7s6p1d pattern {6311111/421111/1}

Atom   0C    basis set group =>   1
Atom   1N    basis set group =>   2
Atom   2C    basis set group =>   1
Atom   3C    basis set group =>   1
Atom   4C    basis set group =>   1
Atom   5C    basis set group =>   1
Atom   6N    basis set group =>   2
Atom   7O    basis set group =>   3
Atom   8O    basis set group =>   3
Atom   9F    basis set group =>   4
Atom  10H    basis set group =>   5
Atom  11H    basis set group =>   5
Atom  12H    basis set group =>   5
Atom  13C    basis set group =>   1
Atom  14H    basis set group =>   5
Atom  15H    basis set group =>   5
Atom  16H    basis set group =>   5
Atom  17S    basis set group =>   6
---------------------------------
AUXILIARY/J BASIS SET INFORMATION
---------------------------------
There are 6 groups of distinct atoms

 Group   1 Type C   : 12s5p4d2f1g contracted to 6s4p3d1f1g pattern {711111/2111/211/2/1}
 Group   2 Type N   : 12s5p4d2f1g contracted to 6s4p3d1f1g pattern {711111/2111/211/2/1}
 Group   3 Type O   : 12s5p4d2f1g contracted to 6s4p3d1f1g pattern {711111/2111/211/2/1}
 Group   4 Type F   : 12s5p4d2f1g contracted to 6s4p3d1f1g pattern {711111/2111/211/2/1}
 Group   5 Type H   : 5s2p1d contracted to 3s1p1d pattern {311/2/1}
 Group   6 Type S   : 14s5p5d2f1g contracted to 8s4p3d1f1g pattern {71111111/2111/311/2/1}

Atom   0C    basis set group =>   1
Atom   1N    basis set group =>   2
Atom   2C    basis set group =>   1
Atom   3C    basis set group =>   1
Atom   4C    basis set group =>   1
Atom   5C    basis set group =>   1
Atom   6N    basis set group =>   2
Atom   7O    basis set group =>   3
Atom   8O    basis set group =>   3
Atom   9F    basis set group =>   4
Atom  10H    basis set group =>   5
Atom  11H    basis set group =>   5
Atom  12H    basis set group =>   5
Atom  13C    basis set group =>   1
Atom  14H    basis set group =>   5
Atom  15H    basis set group =>   5
Atom  16H    basis set group =>   5
Atom  17S    basis set group =>   6


           ************************************************************
           *        Program running with 24 parallel MPI-processes    *
           *              working on a common directory               *
           ************************************************************
------------------------------------------------------------------------------
                           ORCA GTO INTEGRAL CALCULATION
                           -- RI-GTO INTEGRALS CHOSEN --
------------------------------------------------------------------------------
------------------------------------------------------------------------------
                   ___                                                        
                  /   \      - P O W E R E D   B Y -                         
                 /     \                                                     
                 |  |  |   _    _      __       _____    __    __             
                 |  |  |  | |  | |    /  \     |  _  \  |  |  /  |          
                  \  \/   | |  | |   /    \    | | | |  |  | /  /          
                 / \  \   | |__| |  /  /\  \   | |_| |  |  |/  /          
                |  |  |   |  __  | /  /__\  \  |    /   |      \           
                |  |  |   | |  | | |   __   |  |    \   |  |\   \          
                \     /   | |  | | |  |  |  |  | |\  \  |  | \   \       
                 \___/    |_|  |_| |__|  |__|  |_| \__\ |__|  \__/        
                                                                              
                      - O R C A' S   B I G   F R I E N D -                    
                                      &                                       
                       - I N T E G R A L  F E E D E R -                       
                                                                              
 v1 FN, 2020, v2 2021                                                         
------------------------------------------------------------------------------


Reading SHARK input file structure_opt.SHARKINP.tmp ... ok
----------------------
SHARK INTEGRAL PACKAGE
----------------------

Number of atoms                             ...     18
Number of basis functions                   ...    314
Number of shells                            ...    154
Maximum angular momentum                    ...      2
Integral batch strategy                     ... SHARK/LIBINT Hybrid
RI-J (if used) integral strategy            ... SPLIT-RIJ (Revised 2003 algorithm where possible)
Printlevel                                  ...      1
Contraction scheme used                     ... SEGMENTED contraction
Coulomb Range Separation                    ... NOT USED
Exchange Range Separation                   ... Long Range
   Mu parameter                             ...  0.300000
   Scaling (regular/separated)              ...  0.157706  0.842294
Finite Nucleus Model                        ... NOT USED
Auxiliary Coulomb fitting basis             ... AVAILABLE
   # of basis functions in Aux-J            ...    656
   # of shells in Aux-J                     ...    212
   Maximum angular momentum in Aux-J        ...      4
Auxiliary J/K fitting basis                 ... NOT available
Auxiliary Correlation fitting basis         ... NOT available
Auxiliary 'external' fitting basis          ... NOT available
Integral threshold                          ...     2.500000e-11
Primitive cut-off                           ...     2.500000e-12
Primitive pair pre-selection threshold      ...     2.500000e-12

Calculating pre-screening integrals         ... done (  0.0 sec) Dimension = 154
Organizing shell pair data                  ... done (  0.1 sec)
Shell pair information
Total number of shell pairs                 ...     11935
Shell pairs after pre-screening             ...      9139
Total number of primitive shell pairs       ...     38500
Primitive shell pairs kept                  ...     20836
          la=0 lb=0:   2819 shell pairs
          la=1 lb=0:   3755 shell pairs
          la=1 lb=1:   1290 shell pairs
          la=2 lb=0:    723 shell pairs
          la=2 lb=1:    499 shell pairs
          la=2 lb=2:     53 shell pairs

Calculating one electron integrals          ... done (  0.0 sec)
Calculating RI/J V-Matrix + Cholesky decomp.... done (  0.1 sec)
Calculating Nuclear repulsion               ... done (  0.0 sec) ENN=    686.214007768408 Eh

SHARK setup successfully completed in   0.4 seconds

Maximum memory used throughout the entire GTOINT-calculation: 17.8 MB


           ************************************************************
           *        Program running with 24 parallel MPI-processes    *
           *              working on a common directory               *
           ************************************************************
-------------------------------------------------------------------------------
                                 ORCA SCF
-------------------------------------------------------------------------------

------------
SCF SETTINGS
------------
Hamiltonian:
 Density Functional     Method          .... DFT(GTOs)
 Exchange Functional    Exchange        .... WB97X
 Correlation Functional Correlation     .... WB97X
 Gradients option       PostSCFGGA      .... off
 Hybrid DFT is turned on
   Fraction HF Exchange ScalHFX         ....  0.157706
   Scaling of DF-GGA-X  ScalDFX         ....  0.000000
   Scaling of DF-GGA-C  ScalDFC         ....  1.000000
   Scaling of DF-LDA-C  ScalLDAC        ....  1.000000
   Perturbative correction              ....  0.000000
   Density functional embedding theory  .... OFF
 Long-range corrected/Screened/Range-Separated Hybrid DFT is turned on
   Amount of maximum screened exact exchange              ....  0.842294
   Range separation parameter mu (erf(mu*r12)/r12)        ....  0.300000
 RI-approximation to the Coulomb term is turned on
   Number of AuxJ basis functions       .... 656
   RIJ-COSX (HFX calculated with COS-X)).... on


General Settings:
 Integral files         IntName         .... structure_opt
 Hartree-Fock type      HFTyp           .... RHF
 Total Charge           Charge          ....   -1
 Multiplicity           Mult            ....    1
 Number of Electrons    NEL             ....   98
 Basis Dimension        Dim             ....  314
 Nuclear Repulsion      ENuc            ....    686.2140077684 Eh

Convergence Acceleration:
 DIIS                   CNVDIIS         .... on
   Start iteration      DIISMaxIt       ....    12
   Startup error        DIISStart       ....  0.200000
   # of expansion vecs  DIISMaxEq       ....     5
   Bias factor          DIISBfac        ....   1.050
   Max. coefficient     DIISMaxC        ....  10.000
 Trust-Rad. Augm. Hess. CNVTRAH         .... auto
   Auto Start mean grad. ratio tolernc. ....  1.125000
   Auto Start start iteration           ....    20
   Auto Start num. interpolation iter.  ....    10
   Max. Number of Micro iterations      ....    16
   Max. Number of Macro iterations      .... Maxiter - #DIIS iter
   Number of Davidson start vectors     ....     2
   Converg. threshold I  (grad. norm)   ....   1.000e-05
   Converg. threshold II (energy diff.) ....   1.000e-08
   Grad. Scal. Fac. for Micro threshold ....   0.100
   Minimum threshold for Micro iter.    ....   0.010
   NR start threshold (gradient norm)   ....   0.001
   Initial trust radius                 ....   0.400
   Minimum AH scaling param. (alpha)    ....   1.000
   Maximum AH scaling param. (alpha)    .... 1000.000
   Orbital update algorithm             .... Taylor
   White noise on init. David. guess    .... on
   Maximum white noise                  ....   0.010
   Quad. conv. algorithm                .... NR
 SOSCF                  CNVSOSCF        .... on
   Start iteration      SOSCFMaxIt      ....   150
   Startup grad/error   SOSCFStart      ....  0.003300
 Level Shifting         CNVShift        .... on
   Level shift para.    LevelShift      ....    0.2500
   Turn off err/grad.   ShiftErr        ....    0.0010
 Zerner damping         CNVZerner       .... off
 Static damping         CNVDamp         .... on
   Fraction old density DampFac         ....    0.7000
   Max. Damping (<1)    DampMax         ....    0.9800
   Min. Damping (>=0)   DampMin         ....    0.0000
   Turn off err/grad.   DampErr         ....    0.1000
 Fernandez-Rico         CNVRico         .... off

SCF Procedure:
 Maximum # iterations   MaxIter         ....   125
 SCF integral mode      SCFMode         .... Direct
   Integral package                     .... SHARK and LIBINT hybrid scheme
 Reset frequency        DirectResetFreq ....    20
 Integral Threshold     Thresh          ....  2.500e-11 Eh
 Primitive CutOff       TCut            ....  2.500e-12 Eh

Convergence Tolerance:
 Convergence Check Mode ConvCheckMode   .... Total+1el-Energy
 Convergence forced     ConvForced      .... 0
 Energy Change          TolE            ....  1.000e-08 Eh
 1-El. energy change                    ....  1.000e-05 Eh
 Orbital Gradient       TolG            ....  1.000e-05
 Orbital Rotation angle TolX            ....  1.000e-05
 DIIS Error             TolErr          ....  5.000e-07


Diagonalization of the overlap matrix:
Smallest eigenvalue                        ... 4.293e-06
Time for diagonalization                   ...    0.015 sec
Threshold for overlap eigenvalues          ... 1.000e-08
Number of eigenvalues below threshold      ... 0
Time for construction of square roots      ...    0.027 sec
Total time needed                          ...    0.043 sec

Time for model grid setup =    0.459 sec

------------------------------
INITIAL GUESS: MODEL POTENTIAL
------------------------------
Loading Hartree-Fock densities                     ... done
Calculating cut-offs                               ... done
Initializing the effective Hamiltonian             ... done
Setting up the integral package (SHARK)            ... done
Starting the Coulomb interaction                   ... done (   0.1 sec)
Reading the grid                                   ... done
Mapping shells                                     ... done
Starting the XC term evaluation                    ... done (   0.0 sec)
  promolecular density results
     # of electrons  =     96.995069648
     EX              =    -96.552187899
     EC              =     -3.327204039
     EX+EC           =    -99.879391937
Transforming the Hamiltonian                       ... done (   0.0 sec)
Diagonalizing the Hamiltonian                      ... done (   0.0 sec)
Back transforming the eigenvectors                 ... done (   0.0 sec)
Now organizing SCF variables                       ... done
                      ------------------
                      INITIAL GUESS DONE (   0.6 sec)
                      ------------------
-------------------
DFT GRID GENERATION
-------------------

General Integration Accuracy     IntAcc      ... 4.388
Radial Grid Type                 RadialGrid  ... OptM3 with GC (2021)
Angular Grid (max. ang.)         AngularGrid ... 4 (Lebedev-302)
Angular grid pruning method      GridPruning ... 4 (adaptive)
Weight generation scheme         WeightScheme... Becke
Basis function cutoff            BFCut       ... 1.0000e-11
Integration weight cutoff        WCut        ... 1.0000e-14
Angular grids for H and He will be reduced by one unit
Partially contracted basis set               ... off
Rotationally invariant grid construction     ... off

Total number of grid points                  ...    98140
Total number of batches                      ...     1540
Average number of points per batch           ...       63
Average number of grid points per atom       ...     5452
Time for grid setup =    0.915 sec

--------------------
COSX GRID GENERATION
--------------------

GRIDX 1
-------
General Integration Accuracy     IntAcc      ... 3.816
Radial Grid Type                 RadialGrid  ... OptM3 with GC (2021)
Angular Grid (max. ang.)         AngularGrid ... 1 (Lebedev-50)
Angular grid pruning method      GridPruning ... 4 (adaptive)
Weight generation scheme         WeightScheme... Becke
Basis function cutoff            BFCut       ... 1.0000e-11
Integration weight cutoff        WCut        ... 1.0000e-14
Angular grids for H and He will be reduced by one unit
Partially contracted basis set               ... on
Rotationally invariant grid construction     ... off

Total number of grid points                  ...    12260
Total number of batches                      ...      201
Average number of points per batch           ...       60
Average number of grid points per atom       ...      681
UseSFitting                                  ... on

GRIDX 2
-------
General Integration Accuracy     IntAcc      ... 4.020
Radial Grid Type                 RadialGrid  ... OptM3 with GC (2021)
Angular Grid (max. ang.)         AngularGrid ... 2 (Lebedev-110)
Angular grid pruning method      GridPruning ... 4 (adaptive)
Weight generation scheme         WeightScheme... Becke
Basis function cutoff            BFCut       ... 1.0000e-11
Integration weight cutoff        WCut        ... 1.0000e-14
Angular grids for H and He will be reduced by one unit
Partially contracted basis set               ... on
Rotationally invariant grid construction     ... off

Total number of grid points                  ...    31044
Total number of batches                      ...      495
Average number of points per batch           ...       62
Average number of grid points per atom       ...     1725
UseSFitting                                  ... on

GRIDX 3
-------
General Integration Accuracy     IntAcc      ... 4.338
Radial Grid Type                 RadialGrid  ... OptM3 with GC (2021)
Angular Grid (max. ang.)         AngularGrid ... 3 (Lebedev-194)
Angular grid pruning method      GridPruning ... 4 (adaptive)
Weight generation scheme         WeightScheme... Becke
Basis function cutoff            BFCut       ... 1.0000e-11
Integration weight cutoff        WCut        ... 1.0000e-14
Angular grids for H and He will be reduced by one unit
Partially contracted basis set               ... on
Rotationally invariant grid construction     ... off

Total number of grid points                  ...    68970
Total number of batches                      ...     1089
Average number of points per batch           ...       63
Average number of grid points per atom       ...     3832
UseSFitting                                  ... on

Time for X-Grid setup             =    1.424 sec


--------------------
CPCM SOLVATION MODEL
--------------------
CPCM parameters:
  Epsilon                                         ...      78.3550
  Refrac                                          ...       1.3328
  Rsolv                                           ...       1.3000
  Surface type                                    ... GAUSSIAN VDW
  Epsilon function type                           ...         CPCM
Solvent:                                     ... WATER
SMD-CDS solvent descriptors:
  Soln                                       ...    1.3328
  Soln25                                     ...    1.3323
  Sola                                       ...    0.0000
  Solb                                       ...    0.0000
  Solg                                       ...    0.0000
  Solc                                       ...    0.0000
  Solh                                       ...    0.0000
Radii:
 Radius for C  used is    3.4960 Bohr (=   1.8500 Ang.)
 Radius for N  used is    3.5716 Bohr (=   1.8900 Ang.)
 Radius for O  used is    2.8724 Bohr (=   1.5200 Ang.)
 Radius for F  used is    3.2692 Bohr (=   1.7300 Ang.)
 Radius for H  used is    2.2677 Bohr (=   1.2000 Ang.)
 Radius for S  used is    4.7054 Bohr (=   2.4900 Ang.)
Calculating surface                               ...        done! (  0.0s)
GEPOL surface points                              ...         1159
GEPOL Volume                                      ...    1370.8441
GEPOL Surface-area                                ...     850.0007
Calculating surface distance matrix               ...        done! (  0.0s)
Performing Cholesky decomposition & store         ...        done! (  0.1s)
Overall time for CPCM initialization              ...                 0.1s
--------------
SCF ITERATIONS
--------------
ITER       Energy         Delta-E        Max-DP      RMS-DP      [F,P]     Damp
               ***  Starting incremental Fock matrix formation  ***
  0   -989.8664260633   0.000000000000 0.34203734  0.00320413  0.2373491 0.7000
  1   -990.0286351395  -0.162209076215 0.28775827  0.00256318  0.1165059 0.7000
                               ***Turning on DIIS***
  2   -990.1010756445  -0.072440504955 1.59543527  0.00904928  0.0610047 0.0000
  3   -990.2251343395  -0.124058695019 0.71035620  0.00379325  0.0550064 0.0000
  4   -990.2442910596  -0.019156720087 0.26708229  0.00146631  0.0124884 0.0000
  5   -990.2454693081  -0.001178248489 0.12815884  0.00074475  0.0061470 0.0000
                      *** Initiating the SOSCF procedure ***
                           *** Shutting down DIIS ***
                      *** Re-Reading the Fockian *** 
                      *** Removing any level shift *** 
ITER      Energy       Delta-E        Grad      Rot      Max-DP    RMS-DP
  6   -990.24570204  -0.0002327328  0.001485  0.001485  0.034968  0.000250
               *** Restarting incremental Fock matrix formation ***
  7   -990.24579540  -0.0000933583  0.000970  0.002381  0.014791  0.000193
  8   -990.24583393  -0.0000385286  0.000332  0.002488  0.012570  0.000183
  9   -990.24583994  -0.0000060164  0.000674  0.000704  0.009743  0.000092
 10   -990.24584665  -0.0000067016  0.000111  0.000186  0.002375  0.000027
 11   -990.24584671  -0.0000000689  0.000092  0.000127  0.003492  0.000020
 12   -990.24584707  -0.0000003526  0.000015  0.000039  0.003229  0.000019
 13   -990.24584708  -0.0000000078  0.000006  0.000032  0.007198  0.000049
 14   -990.24584708  -0.0000000076  0.000005  0.000012  0.003578  0.000026
                  ***Gradient check signals convergence***
              ***Rediagonalizing the Fockian in SOSCF/NRSCF***

               *****************************************************
               *                     SUCCESS                       *
               *           SCF CONVERGED AFTER  15 CYCLES          *
               *****************************************************

Old exchange energy                            =    -28.432338249 Eh
New exchange energy                            =    -28.432343771 Eh
Exchange energy change after final integration =     -0.000005521 Eh
Total energy after final integration           =   -990.245852608 Eh
Final COS-X integration done in                =     3.668 sec

SMD CDS free energy correction energy :                 5.87298     Kcal/mol
Total Energy after SMD CDS correction =              -990.236493422 Eh

----------------
TOTAL SCF ENERGY
----------------

Total Energy       :         -990.23649342 Eh          -26945.70488 eV

Components:
Nuclear Repulsion  :          686.21400777 Eh           18672.83246 eV
Electronic Energy  :        -1676.45050119 Eh          -45618.53734 eV
One Electron Energy:        -2732.05357830 Eh          -74342.95739 eV
Two Electron Energy:         1055.60307711 Eh           28724.42005 eV
Max COSX asymmetry :            0.00000229 Eh               0.00006 eV
CPCM Dielectric    :           -0.12120806 Eh              -3.29824 eV
SMD CDS (Gcds)     :            0.00935919 Eh               0.25468 eV

Virial components:
Potential Energy   :        -1977.46563154 Eh          -53809.57546 eV
Kinetic Energy     :          987.22913811 Eh           26863.87058 eV
Virial Ratio       :            2.00304626


DFT components:
N(Alpha)           :       48.999980669495 electrons
N(Beta)            :       48.999980669495 electrons
N(Total)           :       97.999961338990 electrons
E(XC)              :      -73.337685129458 Eh       
DFET-embed. en.    :        0.000000000000 Eh       
CPCM Solvation Model Properties:
Surface-charge          :            0.94658536
Charge-correction       :           -0.00564644 Eh              -0.15365 eV
Free-energy (cav+disp)  :            0.00935919 Eh               0.25468 eV

---------------
SCF CONVERGENCE
---------------

  Last Energy change         ...   -3.3555e-09  Tolerance :   1.0000e-08
  Last MAX-Density change    ...    2.6645e-15  Tolerance :   1.0000e-07
  Last RMS-Density change    ...    4.3417e-17  Tolerance :   5.0000e-09
  Last Orbital Gradient      ...    1.9977e-06  Tolerance :   1.0000e-05
  Last Orbital Rotation      ...    1.6326e-06  Tolerance :   1.0000e-05

             **** THE GBW FILE WAS UPDATED (structure_opt.gbw) ****
             **** DENSITY structure_opt.scfp WAS UPDATED ****
             **** ENERGY FILE WAS UPDATED (structure_opt.en.tmp) ****
             **** THE GBW FILE WAS UPDATED (structure_opt.gbw) ****
             **** DENSITY structure_opt.scfp WAS UPDATED ****
----------------
ORBITAL ENERGIES
----------------

  NO   OCC          E(Eh)            E(eV) 
   0   2.0000     -88.720675     -2414.2123 
   1   2.0000     -24.793277      -674.6594 
   2   2.0000     -19.275663      -524.5175 
   3   2.0000     -19.243984      -523.6554 
   4   2.0000     -14.669890      -399.1880 
   5   2.0000     -14.435446      -392.8084 
   6   2.0000     -10.437620      -284.0221 
   7   2.0000     -10.364079      -282.0209 
   8   2.0000     -10.338066      -281.3131 
   9   2.0000     -10.321070      -280.8506 
  10   2.0000     -10.290354      -280.0148 
  11   2.0000     -10.236384      -278.5462 
  12   2.0000      -7.916534      -215.4199 
  13   2.0000      -5.879688      -159.9944 
  14   2.0000      -5.872305      -159.7935 
  15   2.0000      -5.872268      -159.7925 
  16   2.0000      -1.396315       -37.9957 
  17   2.0000      -1.348294       -36.6890 
  18   2.0000      -1.151554       -31.3354 
  19   2.0000      -1.109142       -30.1813 
  20   2.0000      -1.008364       -27.4390 
  21   2.0000      -0.943272       -25.6677 
  22   2.0000      -0.873927       -23.7808 
  23   2.0000      -0.836470       -22.7615 
  24   2.0000      -0.796558       -21.6755 
  25   2.0000      -0.769115       -20.9287 
  26   2.0000      -0.705962       -19.2102 
  27   2.0000      -0.686536       -18.6816 
  28   2.0000      -0.669324       -18.2132 
  29   2.0000      -0.665446       -18.1077 
  30   2.0000      -0.661769       -18.0077 
  31   2.0000      -0.633261       -17.2319 
  32   2.0000      -0.620329       -16.8800 
  33   2.0000      -0.615103       -16.7378 
  34   2.0000      -0.563735       -15.3400 
  35   2.0000      -0.536973       -14.6118 
  36   2.0000      -0.527820       -14.3627 
  37   2.0000      -0.527779       -14.3616 
  38   2.0000      -0.494582       -13.4583 
  39   2.0000      -0.494396       -13.4532 
  40   2.0000      -0.456157       -12.4127 
  41   2.0000      -0.432552       -11.7703 
  42   2.0000      -0.421718       -11.4755 
  43   2.0000      -0.416365       -11.3299 
  44   2.0000      -0.407898       -11.0995 
  45   2.0000      -0.391178       -10.6445 
  46   2.0000      -0.384763       -10.4699 
  47   2.0000      -0.259308        -7.0561 
  48   2.0000      -0.259295        -7.0558 
  49   0.0000      -0.064825        -1.7640 
  50   0.0000       0.022659         0.6166 
  51   0.0000       0.050033         1.3615 
  52   0.0000       0.055376         1.5069 
  53   0.0000       0.062645         1.7047 
  54   0.0000       0.069174         1.8823 
  55   0.0000       0.074417         2.0250 
  56   0.0000       0.087664         2.3855 
  57   0.0000       0.092441         2.5154 
  58   0.0000       0.097519         2.6536 
  59   0.0000       0.099991         2.7209 
  60   0.0000       0.112292         3.0556 
  61   0.0000       0.125966         3.4277 
  62   0.0000       0.127997         3.4830 
  63   0.0000       0.131742         3.5849 
  64   0.0000       0.134293         3.6543 
  65   0.0000       0.143450         3.9035 
  66   0.0000       0.157957         4.2982 
  67   0.0000       0.162386         4.4187 
  68   0.0000       0.164833         4.4853 
  69   0.0000       0.168258         4.5785 
  70   0.0000       0.170999         4.6531 
  71   0.0000       0.175179         4.7669 
  72   0.0000       0.176827         4.8117 
  73   0.0000       0.179553         4.8859 
  74   0.0000       0.184526         5.0212 
  75   0.0000       0.192971         5.2510 
  76   0.0000       0.196074         5.3354 
  77   0.0000       0.196630         5.3506 
  78   0.0000       0.200053         5.4437 
  79   0.0000       0.209365         5.6971 
  80   0.0000       0.216699         5.8967 
  81   0.0000       0.220377         5.9968 
  82   0.0000       0.222608         6.0575 
  83   0.0000       0.226822         6.1721 
  84   0.0000       0.236006         6.4220 
  85   0.0000       0.244386         6.6501 
  86   0.0000       0.251320         6.8388 
  87   0.0000       0.253837         6.9073 
  88   0.0000       0.266525         7.2525 
  89   0.0000       0.267864         7.2889 
  90   0.0000       0.272435         7.4133 
  91   0.0000       0.278254         7.5717 
  92   0.0000       0.280119         7.6224 
  93   0.0000       0.283559         7.7160 
  94   0.0000       0.286296         7.7905 
  95   0.0000       0.296488         8.0678 
  96   0.0000       0.310292         8.4435 
  97   0.0000       0.315902         8.5961 
  98   0.0000       0.320454         8.7200 
  99   0.0000       0.324827         8.8390 
 100   0.0000       0.332277         9.0417 
 101   0.0000       0.340612         9.2685 
 102   0.0000       0.349048         9.4981 
 103   0.0000       0.353068         9.6075 
 104   0.0000       0.364614         9.9216 
 105   0.0000       0.368518        10.0279 
 106   0.0000       0.374012        10.1774 
 107   0.0000       0.381520        10.3817 
 108   0.0000       0.394197        10.7266 
 109   0.0000       0.407372        11.0852 
 110   0.0000       0.409207        11.1351 
 111   0.0000       0.419999        11.4288 
 112   0.0000       0.427020        11.6198 
 113   0.0000       0.436580        11.8799 
 114   0.0000       0.443287        12.0624 
 115   0.0000       0.452784        12.3209 
 116   0.0000       0.467098        12.7104 
 117   0.0000       0.470103        12.7922 
 118   0.0000       0.475191        12.9306 
 119   0.0000       0.479552        13.0493 
 120   0.0000       0.499192        13.5837 
 121   0.0000       0.501974        13.6594 
 122   0.0000       0.517655        14.0861 
 123   0.0000       0.529667        14.4130 
 124   0.0000       0.532937        14.5019 
 125   0.0000       0.551896        15.0179 
 126   0.0000       0.583490        15.8776 
 127   0.0000       0.615350        16.7445 
 128   0.0000       0.618117        16.8198 
 129   0.0000       0.626744        17.0546 
 130   0.0000       0.636141        17.3103 
 131   0.0000       0.644156        17.5284 
 132   0.0000       0.658048        17.9064 
 133   0.0000       0.665618        18.1124 
 134   0.0000       0.691782        18.8243 
 135   0.0000       0.703532        19.1441 
 136   0.0000       0.707717        19.2580 
 137   0.0000       0.727094        19.7852 
 138   0.0000       0.748027        20.3549 
 139   0.0000       0.770647        20.9704 
 140   0.0000       0.771367        20.9900 
 141   0.0000       0.778500        21.1841 
 142   0.0000       0.813273        22.1303 
 143   0.0000       0.829740        22.5784 
 144   0.0000       0.841190        22.8900 
 145   0.0000       0.853568        23.2268 
 146   0.0000       0.859052        23.3760 
 147   0.0000       0.875222        23.8160 
 148   0.0000       0.901373        24.5276 
 149   0.0000       0.918383        24.9905 
 150   0.0000       0.920838        25.0573 
 151   0.0000       0.936889        25.4940 
 152   0.0000       0.954174        25.9644 
 153   0.0000       0.958954        26.0945 
 154   0.0000       0.961929        26.1754 
 155   0.0000       0.975806        26.5530 
 156   0.0000       0.986207        26.8360 
 157   0.0000       0.988872        26.9086 
 158   0.0000       1.002653        27.2836 
 159   0.0000       1.005316        27.3560 
 160   0.0000       1.006657        27.3925 
 161   0.0000       1.035844        28.1868 
 162   0.0000       1.044686        28.4274 
 163   0.0000       1.067816        29.0567 
 164   0.0000       1.075802        29.2741 
 165   0.0000       1.080379        29.3986 
 166   0.0000       1.083989        29.4968 
 167   0.0000       1.139919        31.0188 
 168   0.0000       1.144164        31.1343 
 169   0.0000       1.158172        31.5155 
 170   0.0000       1.173147        31.9230 
 171   0.0000       1.194124        32.4938 
 172   0.0000       1.200928        32.6789 
 173   0.0000       1.211153        32.9571 
 174   0.0000       1.250073        34.0162 
 175   0.0000       1.262117        34.3439 
 176   0.0000       1.276832        34.7444 
 177   0.0000       1.279225        34.8095 
 178   0.0000       1.280752        34.8510 
 179   0.0000       1.293376        35.1946 
 180   0.0000       1.300323        35.3836 
 181   0.0000       1.357748        36.9462 
 182   0.0000       1.396168        37.9917 
 183   0.0000       1.407919        38.3114 
 184   0.0000       1.472142        40.0590 
 185   0.0000       1.526426        41.5362 
 186   0.0000       1.544956        42.0404 
 187   0.0000       1.586521        43.1714 
 188   0.0000       1.589123        43.2422 
 189   0.0000       1.590778        43.2873 
 190   0.0000       1.618932        44.0534 
 191   0.0000       1.633370        44.4462 
 192   0.0000       1.655375        45.0450 
 193   0.0000       1.657651        45.1070 
 194   0.0000       1.693799        46.0906 
 195   0.0000       1.695511        46.1372 
 196   0.0000       1.709718        46.5238 
 197   0.0000       1.716596        46.7110 
 198   0.0000       1.749347        47.6022 
 199   0.0000       1.761813        47.9414 
 200   0.0000       1.787093        48.6293 
 201   0.0000       1.810436        49.2645 
 202   0.0000       1.811466        49.2925 
 203   0.0000       1.814479        49.3745 
 204   0.0000       1.843458        50.1631 
 205   0.0000       1.853505        50.4364 
 206   0.0000       1.869600        50.8744 
 207   0.0000       1.910324        51.9826 
 208   0.0000       1.934205        52.6324 
 209   0.0000       1.947754        53.0011 
 210   0.0000       1.972567        53.6763 
 211   0.0000       1.976704        53.7888 
 212   0.0000       1.991119        54.1811 
 213   0.0000       2.012231        54.7556 
 214   0.0000       2.032341        55.3028 
 215   0.0000       2.046387        55.6850 
 216   0.0000       2.057015        55.9742 
 217   0.0000       2.111025        57.4439 
 218   0.0000       2.142073        58.2888 
 219   0.0000       2.148547        58.4649 
 220   0.0000       2.170471        59.0615 
 221   0.0000       2.174027        59.1583 
 222   0.0000       2.177730        59.2591 
 223   0.0000       2.207064        60.0573 
 224   0.0000       2.293263        62.4029 
 225   0.0000       2.323916        63.2370 
 226   0.0000       2.332389        63.4675 
 227   0.0000       2.334294        63.5194 
 228   0.0000       2.401656        65.3524 
 229   0.0000       2.431459        66.1634 
 230   0.0000       2.496715        67.9391 
 231   0.0000       2.563915        69.7677 
 232   0.0000       2.592416        70.5432 
 233   0.0000       2.596813        70.6629 
 234   0.0000       2.607735        70.9601 
 235   0.0000       2.627554        71.4994 
 236   0.0000       2.661351        72.4190 
 237   0.0000       2.662002        72.4367 
 238   0.0000       2.672353        72.7184 
 239   0.0000       2.673452        72.7483 
 240   0.0000       2.697706        73.4083 
 241   0.0000       2.773336        75.4663 
 242   0.0000       2.786077        75.8130 
 243   0.0000       2.830286        77.0160 
 244   0.0000       2.843490        77.3753 
 245   0.0000       2.860955        77.8505 
 246   0.0000       2.870699        78.1157 
 247   0.0000       2.885103        78.5077 
 248   0.0000       2.899386        78.8963 
 249   0.0000       2.902484        78.9806 
 250   0.0000       2.935745        79.8857 
 251   0.0000       2.939666        79.9924 
 252   0.0000       2.960240        80.5522 
 253   0.0000       2.982219        81.1503 
 254   0.0000       2.987141        81.2842 
 255   0.0000       3.002675        81.7069 
 256   0.0000       3.014138        82.0189 
 257   0.0000       3.100763        84.3761 
 258   0.0000       3.153085        85.7998 
 259   0.0000       3.189032        86.7780 
 260   0.0000       3.270394        88.9920 
 261   0.0000       3.307755        90.0086 
 262   0.0000       3.307827        90.0105 
 263   0.0000       3.343692        90.9865 
 264   0.0000       3.370364        91.7123 
 265   0.0000       3.455756        94.0359 
 266   0.0000       3.498386        95.1959 
 267   0.0000       3.560262        96.8797 
 268   0.0000       3.595029        97.8257 
 269   0.0000       3.681202       100.1706 
 270   0.0000       3.703725       100.7835 
 271   0.0000       3.754269       102.1589 
 272   0.0000       3.853737       104.8655 
 273   0.0000       3.885229       105.7224 
 274   0.0000       3.888284       105.8056 
 275   0.0000       3.889752       105.8455 
 276   0.0000       3.903650       106.2237 
 277   0.0000       3.924804       106.7993 
 278   0.0000       4.016238       109.2874 
 279   0.0000       4.061314       110.5140 
 280   0.0000       4.120477       112.1239 
 281   0.0000       4.144843       112.7869 
 282   0.0000       4.169182       113.4492 
 283   0.0000       4.406587       119.9093 
 284   0.0000       4.482634       121.9787 
 285   0.0000       4.503699       122.5519 
 286   0.0000       4.762060       129.5822 
 287   0.0000       4.943123       134.5092 
 288   0.0000       5.071376       137.9992 
 289   0.0000       5.099685       138.7695 
 290   0.0000       5.190333       141.2361 
 291   0.0000       5.219556       142.0314 
 292   0.0000       5.314830       144.6239 
 293   0.0000       5.698502       155.0641 
 294   0.0000       6.130557       166.8209 
 295   0.0000       6.425142       174.8370 
 296   0.0000       6.539574       177.9509 
 297   0.0000       6.840878       186.1498 
 298   0.0000       7.983358       217.2382 
 299   0.0000      17.548979       477.5320 
 300   0.0000      17.552967       477.6405 
 301   0.0000      17.644307       480.1260 
 302   0.0000      23.653186       643.6359 
 303   0.0000      23.891294       650.1152 
 304   0.0000      23.984492       652.6512 
 305   0.0000      24.029591       653.8784 
 306   0.0000      24.071559       655.0204 
 307   0.0000      24.181905       658.0231 
 308   0.0000      35.375556       962.6178 
 309   0.0000      35.657510       970.2902 
 310   0.0000      49.899665      1357.8389 
 311   0.0000      49.963414      1359.5736 
 312   0.0000      66.792818      1817.5250 
 313   0.0000     188.973400      5142.2276 

--------------------
FRAGMENT INFORMATION
--------------------
Fragment  1:    0   1   2   3   4   5 
Fragment  2:    6   7   8   9  10  11  12 
Fragment  3:   13  14  15  16 
Fragment  4:   17 


                    ********************************
                    * MULLIKEN POPULATION ANALYSIS *
                    ********************************

-------------------------
MULLIKEN FRAGMENT CHARGES
-------------------------
 Fragment   0 :  -0.439934
 Fragment   1 :   0.438908
 Fragment   2 :  -0.037025
 Fragment   3 :  -0.961949
Sum of fragment charges:   -1.0000000

---------------------------------
MULLIKEN FRAGMENT OVERLAP CHARGES
---------------------------------
                  0          1          2          3    
      0      20.712875   0.615741  -0.001180   0.001780
      1       0.615741  34.987987   0.000504   0.003594
      2      -0.001180   0.000504  11.649922  -0.646544
      3       0.001780   0.003594  -0.646544  17.282534

-----------------------
MULLIKEN ATOMIC CHARGES
-----------------------
   0 C :   -0.075448
   1 N :   -0.169807
   2 C :   -0.375589
   3 C :   -0.207046
   4 C :    0.434809
   5 C :   -0.046854
   6 N :   -0.073340
   7 O :   -0.053224
   8 O :   -0.238224
   9 F :   -0.103099
  10 H :    0.297090
  11 H :    0.281904
  12 H :    0.327801
  13 C :   -0.421089
  14 H :    0.127581
  15 H :    0.128732
  16 H :    0.127750
  17 S :   -0.961949
Sum of atomic charges:   -1.0000000

--------------------------------
MULLIKEN REDUCED ORBITAL CHARGES
--------------------------------
  0 C s       :     3.323105  s :     3.323105
      pz      :     0.674306  p :     2.591897
      px      :     0.976886
      py      :     0.940705
      dz2     :     0.052760  d :     0.160445
      dxz     :     0.048838
      dyz     :     0.028422
      dx2y2   :     0.013772
      dxy     :     0.016654
  1 N s       :     3.594324  s :     3.594324
      pz      :     1.139529  p :     3.544961
      px      :     1.239799
      py      :     1.165633
      dz2     :     0.008168  d :     0.030522
      dxz     :     0.007240
      dyz     :     0.004753
      dx2y2   :     0.005503
      dxy     :     0.004859
  2 C s       :     3.448620  s :     3.448620
      pz      :     0.820425  p :     2.842812
      px      :     1.169398
      py      :     0.852988
      dz2     :     0.023591  d :     0.084156
      dxz     :     0.032197
      dyz     :     0.014800
      dx2y2   :     0.007216
      dxy     :     0.006351
  3 C s       :     3.177776  s :     3.177776
      pz      :     1.138354  p :     2.976105
      px      :     0.866433
      py      :     0.971317
      dz2     :     0.015287  d :     0.053165
      dxz     :     0.017421
      dyz     :     0.005093
      dx2y2   :     0.008220
      dxy     :     0.007143
  4 C s       :     2.513093  s :     2.513093
      pz      :     0.895241  p :     2.995002
      px      :     1.260615
      py      :     0.839145
      dz2     :     0.016553  d :     0.057096
      dxz     :     0.015855
      dyz     :     0.010569
      dx2y2   :     0.007214
      dxy     :     0.006905
  5 C s       :     3.298134  s :     3.298134
      pz      :     1.081315  p :     2.675582
      px      :     0.465543
      py      :     1.128724
      dz2     :     0.013625  d :     0.073138
      dxz     :     0.029772
      dyz     :     0.010344
      dx2y2   :     0.011214
      dxy     :     0.008183
  6 N s       :     3.588359  s :     3.588359
      pz      :     1.059001  p :     3.375984
      px      :     1.215572
      py      :     1.101411
      dz2     :     0.027721  d :     0.108997
      dxz     :     0.039356
      dyz     :     0.023079
      dx2y2   :     0.008551
      dxy     :     0.010290
  7 O s       :     3.778624  s :     3.778624
      pz      :     1.026725  p :     4.255905
      px      :     1.828222
      py      :     1.400958
      dz2     :     0.009710  d :     0.018695
      dxz     :     0.003512
      dyz     :     0.005305
      dx2y2   :     0.000102
      dxy     :     0.000067
  8 O s       :     3.824469  s :     3.824469
      pz      :     1.624936  p :     4.401640
      px      :     1.217979
      py      :     1.558726
      dz2     :     0.001059  d :     0.012114
      dxz     :     0.004900
      dyz     :     0.000879
      dx2y2   :     0.003117
      dxy     :     0.002158
  9 F s       :     3.918873  s :     3.918873
      pz      :     1.389369  p :     5.178895
      px      :     1.916018
      py      :     1.873508
      dz2     :     0.003096  d :     0.005331
      dxz     :     0.000997
      dyz     :     0.001201
      dx2y2   :     0.000027
      dxy     :     0.000009
 10 H s       :     0.679006  s :     0.679006
      pz      :     0.005483  p :     0.023904
      px      :     0.014123
      py      :     0.004298
 11 H s       :     0.693120  s :     0.693120
      pz      :     0.016384  p :     0.024977
      px      :     0.003658
      py      :     0.004935
 12 H s       :     0.646680  s :     0.646680
      pz      :     0.007744  p :     0.025519
      px      :     0.013375
      py      :     0.004400
 13 C s       :     3.281005  s :     3.281005
      pz      :     1.026634  p :     3.087442
      px      :     1.055575
      py      :     1.005233
      dz2     :     0.005069  d :     0.052642
      dxz     :     0.015104
      dyz     :     0.013327
      dx2y2   :     0.008662
      dxy     :     0.010480
 14 H s       :     0.849746  s :     0.849746
      pz      :     0.007238  p :     0.022673
      px      :     0.005979
      py      :     0.009457
 15 H s       :     0.848583  s :     0.848583
      pz      :     0.006671  p :     0.022685
      px      :     0.010319
      py      :     0.005694
 16 H s       :     0.849538  s :     0.849538
      pz      :     0.008661  p :     0.022712
      px      :     0.008698
      py      :     0.005353
 17 S s       :     6.009880  s :     6.009880
      pz      :     3.622601  p :    10.920652
      px      :     3.928260
      py      :     3.369792
      dz2     :     0.002868  d :     0.031416
      dxz     :     0.003121
      dyz     :     0.014330
      dx2y2   :     0.006326
      dxy     :     0.004770


                     *******************************
                     * LOEWDIN POPULATION ANALYSIS *
                     *******************************

------------------------
LOEWDIN FRAGMENT CHARGES
------------------------
 Fragment   0 :   0.051037
 Fragment   1 :  -0.059340
 Fragment   2 :  -0.354036
 Fragment   3 :  -0.637661

----------------------------
LOEWDIN FRAGMENT BOND ORDERS
----------------------------
                  0          1          2          3    
      0      56.971132   6.779148   0.002456   0.014128
      1       6.779148  43.788716   0.000439   0.002988
      2       0.002456   0.000439  15.414529   1.743856
      3       0.014128   0.002988   1.743856  16.637661

----------------------
LOEWDIN ATOMIC CHARGES
----------------------
   0 C :    0.110904
   1 N :   -0.110698
   2 C :    0.072432
   3 C :   -0.035606
   4 C :    0.077937
   5 C :   -0.063931
   6 N :    0.241457
   7 O :   -0.154467
   8 O :   -0.339040
   9 F :   -0.078119
  10 H :    0.086201
  11 H :    0.084522
  12 H :    0.100106
  13 C :   -0.358306
  14 H :    0.001538
  15 H :    0.001600
  16 H :    0.001131
  17 S :   -0.637661

-------------------------------
LOEWDIN REDUCED ORBITAL CHARGES
-------------------------------
  0 C s       :     2.743878  s :     2.743878
      pz      :     0.849482  p :     2.816090
      px      :     1.080682
      py      :     0.885926
      dz2     :     0.112529  d :     0.329128
      dxz     :     0.100701
      dyz     :     0.050380
      dx2y2   :     0.033890
      dxy     :     0.031629
  1 N s       :     3.150835  s :     3.150835
      pz      :     1.301266  p :     3.903017
      px      :     1.416585
      py      :     1.185165
      dz2     :     0.017388  d :     0.056846
      dxz     :     0.015725
      dyz     :     0.007783
      dx2y2   :     0.009551
      dxy     :     0.006399
  2 C s       :     2.787378  s :     2.787378
      pz      :     1.033404  p :     2.958353
      px      :     1.096973
      py      :     0.827977
      dz2     :     0.060313  d :     0.181838
      dxz     :     0.069041
      dyz     :     0.027966
      dx2y2   :     0.014028
      dxy     :     0.010489
  3 C s       :     2.781349  s :     2.781349
      pz      :     1.081493  p :     3.129903
      px      :     1.092418
      py      :     0.955991
      dz2     :     0.034109  d :     0.124354
      dxz     :     0.045072
      dyz     :     0.008021
      dx2y2   :     0.022223
      dxy     :     0.014928
  4 C s       :     2.779268  s :     2.779268
      pz      :     1.065767  p :     3.014499
      px      :     1.108508
      py      :     0.840224
      dz2     :     0.040916  d :     0.128296
      dxz     :     0.039158
      dyz     :     0.021251
      dx2y2   :     0.015050
      dxy     :     0.011922
  5 C s       :     2.757938  s :     2.757938
      pz      :     1.088523  p :     3.125660
      px      :     0.957266
      py      :     1.079871
      dz2     :     0.039904  d :     0.180333
      dxz     :     0.071785
      dyz     :     0.019846
      dx2y2   :     0.031420
      dxy     :     0.017378
  6 N s       :     3.052073  s :     3.052073
      pz      :     1.205963  p :     3.500109
      px      :     1.215125
      py      :     1.079022
      dz2     :     0.060436  d :     0.206362
      dxz     :     0.076185
      dyz     :     0.035698
      dx2y2   :     0.017513
      dxy     :     0.016529
  7 O s       :     3.581203  s :     3.581203
      pz      :     1.283763  p :     4.540956
      px      :     1.838860
      py      :     1.418333
      dz2     :     0.020434  d :     0.032308
      dxz     :     0.005157
      dyz     :     0.006527
      dx2y2   :     0.000119
      dxy     :     0.000071
  8 O s       :     3.667373  s :     3.667373
      pz      :     1.709920  p :     4.651186
      px      :     1.369871
      py      :     1.571395
      dz2     :     0.001545  d :     0.020481
      dxz     :     0.009263
      dyz     :     0.001173
      dx2y2   :     0.005711
      dxy     :     0.002789
  9 F s       :     3.714914  s :     3.714914
      pz      :     1.535243  p :     5.355836
      px      :     1.934348
      py      :     1.886245
      dz2     :     0.004765  d :     0.007369
      dxz     :     0.001184
      dyz     :     0.001375
      dx2y2   :     0.000037
      dxy     :     0.000009
 10 H s       :     0.843376  s :     0.843376
      pz      :     0.016686  p :     0.070423
      px      :     0.042330
      py      :     0.011407
 11 H s       :     0.843029  s :     0.843029
      pz      :     0.047858  p :     0.072449
      px      :     0.011207
      py      :     0.013385
 12 H s       :     0.826671  s :     0.826671
      pz      :     0.023101  p :     0.073222
      px      :     0.038707
      py      :     0.011414
 13 C s       :     2.858755  s :     2.858755
      pz      :     1.131977  p :     3.392715
      px      :     1.120531
      py      :     1.140208
      dz2     :     0.009541  d :     0.106835
      dxz     :     0.029979
      dyz     :     0.028791
      dx2y2   :     0.017613
      dxy     :     0.020911
 14 H s       :     0.926768  s :     0.926768
      pz      :     0.022302  p :     0.071694
      px      :     0.018182
      py      :     0.031210
 15 H s       :     0.926699  s :     0.926699
      pz      :     0.021152  p :     0.071700
      px      :     0.032473
      py      :     0.018076
 16 H s       :     0.927099  s :     0.927099
      pz      :     0.027984  p :     0.071770
      px      :     0.027407
      py      :     0.016379
 17 S s       :     5.610962  s :     5.610962
      pz      :     3.654111  p :    10.989503
      px      :     3.885116
      py      :     3.450276
      dz2     :     0.003199  d :     0.037196
      dxz     :     0.003636
      dyz     :     0.017273
      dx2y2   :     0.007516
      dxy     :     0.005572


                      *****************************
                      * MAYER POPULATION ANALYSIS *
                      *****************************

  NA   - Mulliken gross atomic population
  ZA   - Total nuclear charge
  QA   - Mulliken gross atomic charge
  VA   - Mayer's total valence
  BVA  - Mayer's bonded valence
  FA   - Mayer's free valence

  ATOM       NA         ZA         QA         VA         BVA        FA
  0 C      6.0754     6.0000    -0.0754     4.3449     4.3449     0.0000
  1 N      7.1698     7.0000    -0.1698     2.7041     2.7041     0.0000
  2 C      6.3756     6.0000    -0.3756     4.0305     4.0305     0.0000
  3 C      6.2070     6.0000    -0.2070     4.2310     4.2310    -0.0000
  4 C      5.5652     6.0000     0.4348     4.1252     4.1252     0.0000
  5 C      6.0469     6.0000    -0.0469     3.2816     3.2816    -0.0000
  6 N      7.0733     7.0000    -0.0733     3.9247     3.9247    -0.0000
  7 O      8.0532     8.0000    -0.0532     2.1953     2.1953    -0.0000
  8 O      8.2382     8.0000    -0.2382     1.9969     1.9969    -0.0000
  9 F      9.1031     9.0000    -0.1031     0.9633     0.9633     0.0000
 10 H      0.7029     1.0000     0.2971     0.8753     0.8753     0.0000
 11 H      0.7181     1.0000     0.2819     0.9046     0.9046    -0.0000
 12 H      0.6722     1.0000     0.3278     0.8312     0.8312    -0.0000
 13 C      6.4211     6.0000    -0.4211     3.5857     3.5857     0.0000
 14 H      0.8724     1.0000     0.1276     0.9435     0.9435     0.0000
 15 H      0.8713     1.0000     0.1287     0.9405     0.9405     0.0000
 16 H      0.8722     1.0000     0.1278     0.9378     0.9378     0.0000
 17 S     16.9619    16.0000    -0.9619     0.6111     0.6111    -0.0000

  Mayer bond orders larger than 0.100000
B(  0-C ,  1-N ) :   1.3212 B(  0-C ,  2-C ) :   0.2255 B(  0-C ,  3-C ) :   0.1048 
B(  0-C ,  4-C ) :   0.2815 B(  0-C ,  5-C ) :   1.1963 B(  0-C ,  6-N ) :  -0.1776 
B(  0-C ,  9-F ) :   1.4176 B(  1-N ,  2-C ) :   1.2249 B(  1-N ,  5-C ) :   0.1281 
B(  2-C ,  3-C ) :   1.5334 B(  2-C , 10-H ) :   0.8994 B(  3-C ,  4-C ) :   1.4870 
B(  3-C ,  8-O ) :   0.1361 B(  3-C , 11-H ) :   0.8495 B(  4-C ,  5-C ) :   1.5663 
B(  4-C ,  6-N ) :  -0.1416 B(  4-C ,  8-O ) :   0.1588 B(  4-C ,  9-F ) :  -0.1201 
B(  4-C , 12-H ) :   0.7541 B(  5-C ,  6-N ) :   0.7516 B(  5-C ,  8-O ) :  -0.1559 
B(  5-C ,  9-F ) :  -0.3727 B(  5-C , 12-H ) :   0.1149 B(  6-N ,  7-O ) :   1.8507 
B(  6-N ,  8-O ) :   1.6556 B(  7-O ,  8-O ) :   0.2598 B( 13-C , 14-H ) :   0.9829 
B( 13-C , 15-H ) :   0.9826 B( 13-C , 16-H ) :   0.9828 B( 13-C , 17-S ) :   0.6391 


-------
TIMINGS
-------

Total SCF time: 0 days 0 hours 0 min 40 sec 

Total time                  ....      40.420 sec
Sum of individual times     ....      39.643 sec  ( 98.1%)

Fock matrix formation       ....      36.054 sec  ( 89.2%)
  Split-RI-J                ....       2.382 sec  (  6.6% of F)
  Chain of spheres X        ....      22.639 sec  ( 62.8% of F)
  XC integration            ....       6.732 sec  ( 18.7% of F)
    Basis function eval.    ....       0.419 sec  (  6.2% of XC)
    Density eval.           ....       0.806 sec  ( 12.0% of XC)
[...]
 289   0.0000       5.121976       139.3760 
 290   0.0000       5.205329       141.6442 
 291   0.0000       5.281862       143.7268 
 292   0.0000       5.370597       146.1414 
 293   0.0000       5.849216       159.1653 
 294   0.0000       6.340251       172.5270 
 295   0.0000       6.435146       175.1092 
 296   0.0000       6.550269       178.2419 
 297   0.0000       6.862197       186.7299 
 298   0.0000       7.983423       217.2400 
 299   0.0000      17.549030       477.5334 
 300   0.0000      17.553159       477.6457 
 301   0.0000      17.644699       480.1367 
 302   0.0000      23.704069       645.0205 
 303   0.0000      23.955370       651.8588 
 304   0.0000      24.020433       653.6292 
 305   0.0000      24.030795       653.9112 
 306   0.0000      24.134498       656.7331 
 307   0.0000      24.246135       659.7709 
 308   0.0000      35.451881       964.6947 
 309   0.0000      35.737150       972.4573 
 310   0.0000      49.923373      1358.4841 
 311   0.0000      50.030906      1361.4102 
 312   0.0000      66.806700      1817.9027 
 313   0.0000     188.973460      5142.2293 

--------------------
FRAGMENT INFORMATION
--------------------
Fragment  1:    0   1   2   3   4   5 
Fragment  2:    6   7   8   9  10  11  12 
Fragment  3:   13  14  15  16 
Fragment  4:   17 


                    ********************************
                    * MULLIKEN POPULATION ANALYSIS *
                    ********************************

-------------------------
MULLIKEN FRAGMENT CHARGES
-------------------------
 Fragment   0 :  -0.478340
 Fragment   1 :   0.477131
 Fragment   2 :  -0.037701
 Fragment   3 :  -0.961091
Sum of fragment charges:   -1.0000000

---------------------------------
MULLIKEN FRAGMENT OVERLAP CHARGES
---------------------------------
                  0          1          2          3    
      0      18.093374   0.507167  -0.001390   0.001501
      1       0.507167  35.056037   0.000461   0.003759
      2      -0.001390   0.000461  11.651768  -0.644632
      3       0.001501   0.003759  -0.644632  17.280777

-----------------------
MULLIKEN ATOMIC CHARGES
-----------------------
   0 C :   -0.043977
   1 N :   -0.162110
   2 C :   -0.355187
   3 C :   -0.282555
   4 C :    0.510724
   5 C :   -0.145233
   6 N :   -0.010599
   7 O :   -0.164232
   8 O :   -0.117397
   9 F :   -0.120101
  10 H :    0.286198
  11 H :    0.278702
  12 H :    0.324560
  13 C :   -0.421891
  14 H :    0.127647
  15 H :    0.128924
  16 H :    0.127620
  17 S :   -0.961091
Sum of atomic charges:   -1.0000000

--------------------------------
MULLIKEN REDUCED ORBITAL CHARGES
--------------------------------
  0 C s       :     3.281467  s :     3.281467
      pz      :     0.668844  p :     2.592598
      px      :     0.978278
      py      :     0.945476
      dz2     :     0.057273  d :     0.169913
      dxz     :     0.050290
      dyz     :     0.029362
      dx2y2   :     0.014633
      dxy     :     0.018354
  1 N s       :     3.575959  s :     3.575959
      pz      :     1.145788  p :     3.551655
      px      :     1.249565
      py      :     1.156302
      dz2     :     0.008681  d :     0.034496
      dxz     :     0.008669
      dyz     :     0.005273
      dx2y2   :     0.006080
      dxy     :     0.005794
  2 C s       :     3.380330  s :     3.380330
      pz      :     0.833228  p :     2.885918
      px      :     1.181466
      py      :     0.871224
      dz2     :     0.025079  d :     0.088939
      dxz     :     0.033571
      dyz     :     0.015876
      dx2y2   :     0.007946
      dxy     :     0.006468
  3 C s       :     3.234872  s :     3.234872
      pz      :     1.136901  p :     2.992039
      px      :     0.881409
      py      :     0.973729
      dz2     :     0.015905  d :     0.055644
      dxz     :     0.018366
      dyz     :     0.005668
      dx2y2   :     0.008181
      dxy     :     0.007525
  4 C s       :     2.399835  s :     2.399835
      pz      :     0.924880  p :     3.029769
      px      :     1.261797
      py      :     0.843093
      dz2     :     0.017289  d :     0.059672
      dxz     :     0.016024
      dyz     :     0.011337
      dx2y2   :     0.007770
      dxy     :     0.007253
  5 C s       :     3.349782  s :     3.349782
      pz      :     1.103019  p :     2.721895
      px      :     0.486379
      py      :     1.132497
      dz2     :     0.013104  d :     0.073556
      dxz     :     0.030957
      dyz     :     0.010319
      dx2y2   :     0.011067
      dxy     :     0.008110
  6 N s       :     3.487067  s :     3.487067
      pz      :     1.041383  p :     3.384655
      px      :     1.235441
      py      :     1.107831
      dz2     :     0.038005  d :     0.138877
      dxz     :     0.045108
      dyz     :     0.029030
      dx2y2   :     0.012068
      dxy     :     0.014666
  7 O s       :     3.804581  s :     3.804581
      pz      :     1.023355  p :     4.341487
      px      :     1.839522
      py      :     1.478611
      dz2     :     0.009759  d :     0.018165
      dxz     :     0.003256
      dyz     :     0.004994
      dx2y2   :     0.000093
      dxy     :     0.000062
  8 O s       :     3.784260  s :     3.784260
      pz      :     1.553204  p :     4.312999
      px      :     1.329801
      py      :     1.429993
      dz2     :     0.002411  d :     0.020137
      dxz     :     0.007368
      dyz     :     0.002083
      dx2y2   :     0.004219
      dxy     :     0.004056
  9 F s       :     3.917943  s :     3.917943
      pz      :     1.399997  p :     5.196930
      px      :     1.918629
      py      :     1.878304
      dz2     :     0.003043  d :     0.005228
      dxz     :     0.000973
      dyz     :     0.001172
      dx2y2   :     0.000030
      dxy     :     0.000011
 10 H s       :     0.690507  s :     0.690507
      pz      :     0.004553  p :     0.023295
      px      :     0.014455
      py      :     0.004286
 11 H s       :     0.696092  s :     0.696092
      pz      :     0.016424  p :     0.025206
      px      :     0.003794
      py      :     0.004988
 12 H s       :     0.649606  s :     0.649606
      pz      :     0.007361  p :     0.025834
      px      :     0.014000
      py      :     0.004473
 13 C s       :     3.281744  s :     3.281744
      pz      :     1.026844  p :     3.087503
      px      :     1.054668
      py      :     1.005991
      dz2     :     0.004766  d :     0.052644
      dxz     :     0.015348
      dyz     :     0.013470
      dx2y2   :     0.008837
      dxy     :     0.010224
 14 H s       :     0.849662  s :     0.849662
      pz      :     0.007295  p :     0.022691
      px      :     0.005869
      py      :     0.009527
 15 H s       :     0.848374  s :     0.848374
      pz      :     0.006909  p :     0.022702
      px      :     0.010123
      py      :     0.005671
 16 H s       :     0.849664  s :     0.849664
      pz      :     0.008393  p :     0.022716
      px      :     0.008947
      py      :     0.005376
 17 S s       :     6.008938  s :     6.008938
      pz      :     3.624566  p :    10.920741
      px      :     3.919264
      py      :     3.376911
      dz2     :     0.002846  d :     0.031411
      dxz     :     0.003297
      dyz     :     0.014126
      dx2y2   :     0.006148
      dxy     :     0.004994


                     *******************************
                     * LOEWDIN POPULATION ANALYSIS *
                     *******************************

------------------------
LOEWDIN FRAGMENT CHARGES
------------------------
 Fragment   0 :   0.024514
 Fragment   1 :  -0.032971
 Fragment   2 :  -0.354002
 Fragment   3 :  -0.637542

----------------------------
LOEWDIN FRAGMENT BOND ORDERS
----------------------------
                  0          1          2          3    
      0      57.210716   6.725437   0.002522   0.014488
      1       6.725437  44.210039   0.000436   0.002960
      2       0.002522   0.000436  15.414847   1.743760
      3       0.014488   0.002960   1.743760  16.637542

----------------------
LOEWDIN ATOMIC CHARGES
----------------------
   0 C :    0.081541
   1 N :   -0.080881
   2 C :    0.051471
   3 C :   -0.035912
   4 C :    0.073001
   5 C :   -0.064706
   6 N :    0.202757
   7 O :   -0.220157
   8 O :   -0.194365
   9 F :   -0.088890
  10 H :    0.082596
  11 H :    0.085585
  12 H :    0.099504
  13 C :   -0.358109
  14 H :    0.001472
  15 H :    0.001540
  16 H :    0.001095
  17 S :   -0.637542

-------------------------------
LOEWDIN REDUCED ORBITAL CHARGES
-------------------------------
  0 C s       :     2.731311  s :     2.731311
      pz      :     0.851878  p :     2.836497
      px      :     1.095611
      py      :     0.889008
      dz2     :     0.121950  d :     0.350652
      dxz     :     0.103873
      dyz     :     0.052111
      dx2y2   :     0.037188
      dxy     :     0.035530
  1 N s       :     3.108299  s :     3.108299
      pz      :     1.298684  p :     3.907639
      px      :     1.433933
      py      :     1.175021
      dz2     :     0.018889  d :     0.064943
      dxz     :     0.018502
      dyz     :     0.009152
      dx2y2   :     0.010667
      dxy     :     0.007732
  2 C s       :     2.774892  s :     2.774892
      pz      :     1.042674  p :     2.980005
      px      :     1.092894
      py      :     0.844438
      dz2     :     0.063997  d :     0.193632
      dxz     :     0.072995
      dyz     :     0.030629
      dx2y2   :     0.015297
      dxy     :     0.010713
  3 C s       :     2.772599  s :     2.772599
      pz      :     1.079619  p :     3.133832
      px      :     1.096856
      py      :     0.957357
      dz2     :     0.035209  d :     0.129480
      dxz     :     0.047155
      dyz     :     0.008860
      dx2y2   :     0.022363
      dxy     :     0.015894
  4 C s       :     2.769350  s :     2.769350
      pz      :     1.074741  p :     3.022850
      px      :     1.104806
      py      :     0.843303
      dz2     :     0.042713  d :     0.134798
      dxz     :     0.040399
      dyz     :     0.022931
      dx2y2   :     0.016114
      dxy     :     0.012642
  5 C s       :     2.753212  s :     2.753212
      pz      :     1.089745  p :     3.129499
      px      :     0.959126
      py      :     1.080629
      dz2     :     0.039533  d :     0.181995
      dxz     :     0.074159
      dyz     :     0.020080
      dx2y2   :     0.030880
      dxy     :     0.017341
  6 N s       :     2.997908  s :     2.997908
      pz      :     1.219796  p :     3.530632
      px      :     1.230267
      py      :     1.080569
      dz2     :     0.080473  d :     0.268702
      dxz     :     0.092460
      dyz     :     0.045988
      dx2y2   :     0.025766
      dxy     :     0.024015
  7 O s       :     3.574475  s :     3.574475
      pz      :     1.274943  p :     4.614057
      px      :     1.847311
      py      :     1.491804
      dz2     :     0.020484  d :     0.031625
      dxz     :     0.004813
      dyz     :     0.006150
      dx2y2   :     0.000113
      dxy     :     0.000065
  8 O s       :     3.548746  s :     3.548746
      pz      :     1.675781  p :     4.610351
      px      :     1.486177
      py      :     1.448393
      dz2     :     0.003664  d :     0.035268
      dxz     :     0.015162
      dyz     :     0.002868
      dx2y2   :     0.008187
      dxy     :     0.005387
  9 F s       :     3.713734  s :     3.713734
      pz      :     1.540139  p :     5.367903
      px      :     1.937120
      py      :     1.890644
      dz2     :     0.004682  d :     0.007253
      dxz     :     0.001172
      dyz     :     0.001349
      dx2y2   :     0.000040
      dxy     :     0.000011
 10 H s       :     0.848774  s :     0.848774
      pz      :     0.014242  p :     0.068630
      px      :     0.042832
      py      :     0.011556
 11 H s       :     0.842232  s :     0.842232
      pz      :     0.047426  p :     0.072183
      px      :     0.011372
      py      :     0.013385
 12 H s       :     0.827107  s :     0.827107
      pz      :     0.021613  p :     0.073389
      px      :     0.040200
      py      :     0.011575
 13 C s       :     2.858419  s :     2.858419
      pz      :     1.131924  p :     3.392832
      px      :     1.120929
      py      :     1.139979
      dz2     :     0.008924  d :     0.106858
      dxz     :     0.030517
      dyz     :     0.029045
      dx2y2   :     0.017924
      dxy     :     0.020448
 14 H s       :     0.926753  s :     0.926753
      pz      :     0.022505  p :     0.071775
      px      :     0.017819
      py      :     0.031452
 15 H s       :     0.926671  s :     0.926671
      pz      :     0.021988  p :     0.071789
      px      :     0.031816
      py      :     0.017985
 16 H s       :     0.927119  s :     0.927119
      pz      :     0.027052  p :     0.071786
      px      :     0.028287
      py      :     0.016447
 17 S s       :     5.610830  s :     5.610830
      pz      :     3.655828  p :    10.989519
      px      :     3.878157
      py      :     3.455534
      dz2     :     0.003173  d :     0.037192
      dxz     :     0.003851
      dyz     :     0.017025
      dx2y2   :     0.007293
      dxy     :     0.005851


                      *****************************
                      * MAYER POPULATION ANALYSIS *
                      *****************************

  NA   - Mulliken gross atomic population
  ZA   - Total nuclear charge
  QA   - Mulliken gross atomic charge
  VA   - Mayer's total valence
  BVA  - Mayer's bonded valence
  FA   - Mayer's free valence

  ATOM       NA         ZA         QA         VA         BVA        FA
  0 C      6.0440     6.0000    -0.0440     4.2666     4.2666    -0.0000
  1 N      7.1621     7.0000    -0.1621     2.7253     2.7253    -0.0000
  2 C      6.3552     6.0000    -0.3552     4.0799     4.0799     0.0000
  3 C      6.2826     6.0000    -0.2826     4.4004     4.4004     0.0000
  4 C      5.4893     6.0000     0.5107     4.0281     4.0281     0.0000
  5 C      6.1452     6.0000    -0.1452     3.3214     3.3214    -0.0000
  6 N      7.0106     7.0000    -0.0106     4.0212     4.0212    -0.0000
  7 O      8.1642     8.0000    -0.1642     2.1101     2.1101    -0.0000
  8 O      8.1174     8.0000    -0.1174     2.1961     2.1961     0.0000
  9 F      9.1201     9.0000    -0.1201     0.9256     0.9256    -0.0000
 10 H      0.7138     1.0000     0.2862     0.8765     0.8765    -0.0000
 11 H      0.7213     1.0000     0.2787     0.9100     0.9100     0.0000
 12 H      0.6754     1.0000     0.3246     0.8328     0.8328    -0.0000
 13 C      6.4219     6.0000    -0.4219     3.5871     3.5871    -0.0000
 14 H      0.8724     1.0000     0.1276     0.9436     0.9436    -0.0000
 15 H      0.8711     1.0000     0.1289     0.9404     0.9404    -0.0000
 16 H      0.8724     1.0000     0.1276     0.9379     0.9379    -0.0000
 17 S     16.9611    16.0000    -0.9611     0.6113     0.6113    -0.0000

  Mayer bond orders larger than 0.100000
B(  0-C ,  1-N ) :   1.3276 B(  0-C ,  2-C ) :   0.2076 B(  0-C ,  3-C ) :   0.1352 
B(  0-C ,  4-C ) :   0.2347 B(  0-C ,  5-C ) :   1.2291 B(  0-C ,  6-N ) :  -0.1809 
B(  0-C ,  8-O ) :  -0.1137 B(  0-C ,  9-F ) :   1.3643 B(  1-N ,  2-C ) :   1.2047 
B(  1-N ,  5-C ) :   0.1481 B(  2-C ,  3-C ) :   1.6238 B(  2-C ,  5-C ) :   0.1273 
B(  2-C , 10-H ) :   0.8986 B(  3-C ,  4-C ) :   1.4233 B(  3-C ,  5-C ) :   0.1111 
B(  3-C ,  8-O ) :   0.1631 B(  3-C , 11-H ) :   0.8462 B(  4-C ,  5-C ) :   1.5338 
B(  4-C ,  8-O ) :   0.2470 B(  4-C ,  9-F ) :  -0.1293 B(  4-C , 12-H ) :   0.7161 
B(  5-C ,  6-N ) :   0.6689 B(  5-C ,  7-O ) :  -0.1096 B(  5-C ,  8-O ) :  -0.2092 
B(  5-C ,  9-F ) :  -0.3428 B(  5-C , 12-H ) :   0.1419 B(  6-N ,  7-O ) :   1.8219 
B(  6-N ,  8-O ) :   1.8474 B(  7-O ,  8-O ) :   0.2468 B( 13-C , 14-H ) :   0.9832 
B( 13-C , 15-H ) :   0.9828 B( 13-C , 16-H ) :   0.9830 B( 13-C , 17-S ) :   0.6399 


-------
TIMINGS
-------

Total SCF time: 0 days 0 hours 0 min 20 sec 

Total time                  ....      20.170 sec
Sum of individual times     ....      19.484 sec  ( 96.6%)

Fock matrix formation       ....      17.308 sec  ( 85.8%)
  Split-RI-J                ....       1.048 sec  (  6.1% of F)
  Chain of spheres X        ....      12.573 sec  ( 72.6% of F)
  XC integration            ....       1.993 sec  ( 11.5% of F)
    Basis function eval.    ....       0.207 sec  ( 10.4% of XC)
    Density eval.           ....       0.205 sec  ( 10.3% of XC)
    XC-Functional eval.     ....       0.132 sec  (  6.6% of XC)
    XC-Potential eval.      ....       0.144 sec  (  7.2% of XC)
Diagonalization             ....       0.026 sec  (  0.1%)
Density matrix formation    ....       0.013 sec  (  0.1%)
Population analysis         ....       0.080 sec  (  0.4%)
Initial guess               ....       0.038 sec  (  0.2%)
Orbital Transformation      ....       0.000 sec  (  0.0%)
Orbital Orthonormalization  ....       0.019 sec  (  0.1%)
DIIS solution               ....       0.011 sec  (  0.1%)
SOSCF solution              ....       0.150 sec  (  0.7%)
Grid generation             ....       1.857 sec  (  9.2%)

Maximum memory used throughout the entire SCF-calculation: 68.8 MB

-------------------------   --------------------
FINAL SINGLE POINT ENERGY      -990.265765374912
-------------------------   --------------------

                                *** OPTIMIZATION RUN DONE ***

                            ***************************************
                            *     ORCA property calculations      *
                            ***************************************

                                    ---------------------
                                    Active property flags
                                    ---------------------
   (+) Dipole Moment


------------------------------------------------------------------------------
                       ORCA ELECTRIC PROPERTIES CALCULATION
------------------------------------------------------------------------------

Dipole Moment Calculation                       ... on
Quadrupole Moment Calculation                   ... off
Polarizability Calculation                      ... off
GBWName                                         ... structure_opt.gbw
Electron density                                ... structure_opt.scfp
The origin for moment calculation is the CENTER OF MASS  = (-0.368518, -2.560722  5.496077)

-------------
DIPOLE MOMENT
-------------
                                X             Y             Z
Electronic contribution:     -9.67911      20.14310     -13.50391
Nuclear contribution   :      7.49411     -13.16414      14.48590
                        -----------------------------------------
Total Dipole Moment    :     -2.18501       6.97896       0.98199
                        -----------------------------------------
Magnitude (a.u.)       :      7.37864
Magnitude (Debye)      :     18.75502



--------------------
Rotational spectrum 
--------------------
 
Rotational constants in cm-1:     0.038046     0.008065     0.008039 
Rotational constants in MHz :  1140.593059   241.783336   241.000379 

 Dipole components along the rotational axes: 
x,y,z [a.u.] :     6.322006    -3.487051     1.522203 
x,y,z [Debye]:    16.069263    -8.863379     3.869132 

 

Timings for individual modules:

Sum of individual times         ...     1442.123 sec (=  24.035 min)
GTO integral calculation        ...       87.605 sec (=   1.460 min)   6.1 %
SCF iterations                  ...     1120.341 sec (=  18.672 min)  77.7 %
SCF Gradient evaluation         ...      232.507 sec (=   3.875 min)  16.1 %
Geometry relaxation             ...        1.670 sec (=   0.028 min)   0.1 %
                             ****ORCA TERMINATED NORMALLY****
TOTAL RUN TIME: 0 days 0 hours 25 minutes 29 seconds 533 msec
