
                                 *****************
                                 * O   R   C   A *
                                 *****************

                                            #,                                       
                                            ###                                      
                                            ####                                     
                                            #####                                    
                                            ######                                   
                                           ########,                                 
                                     ,,################,,,,,                         
                               ,,#################################,,                 
                          ,,##########################################,,             
                       ,#########################################, ''#####,          
                    ,#############################################,,   '####,        
                  ,##################################################,,,,####,       
                ,###########''''           ''''###############################       
              ,#####''   ,,,,##########,,,,          '''####'''          '####       
            ,##' ,,,,###########################,,,                        '##       
           ' ,,###''''                  '''############,,,                           
         ,,##''                                '''############,,,,        ,,,,,,###''
      ,#''                                            '''#######################'''  
     '                                                          ''''####''''         
             ,#######,   #######,   ,#######,      ##                                
            ,#'     '#,  ##    ##  ,#'     '#,    #''#        ######   ,####,        
            ##       ##  ##   ,#'  ##            #'  '#       #        #'  '#        
            ##       ##  #######   ##           ,######,      #####,   #    #        
            '#,     ,#'  ##    ##  '#,     ,#' ,#      #,         ##   #,  ,#        
             '#######'   ##     ##  '#######'  #'      '#     #####' # '####'        



                  #######################################################
                  #                        -***-                        #
                  #          Department of theory and spectroscopy      #
                  #    Directorship and core code : Frank Neese         #
                  #        Max Planck Institute fuer Kohlenforschung    #
                  #                Kaiser Wilhelm Platz 1               #
                  #                 D-45470 Muelheim/Ruhr               #
                  #                      Germany                        #
                  #                                                     #
                  #                  All rights reserved                #
                  #                        -***-                        #
                  #######################################################


                         Program Version 5.0.1 -  RELEASE  -


 With contributions from (in alphabetic order):
   Daniel Aravena         : Magnetic Suceptibility
   Michael Atanasov       : Ab Initio Ligand Field Theory (pilot matlab implementation)
   Alexander A. Auer      : GIAO ZORA, VPT2 properties, NMR spectrum
   Ute Becker             : Parallelization
   Giovanni Bistoni       : ED, misc. LED, open-shell LED, HFLD
   Martin Brehm           : Molecular dynamics
   Dmytro Bykov           : SCF Hessian
   Vijay G. Chilkuri      : MRCI spin determinant printing, contributions to CSF-ICE
   Dipayan Datta          : RHF DLPNO-CCSD density
   Achintya Kumar Dutta   : EOM-CC, STEOM-CC
   Dmitry Ganyushin       : Spin-Orbit,Spin-Spin,Magnetic field MRCI
   Miquel Garcia          : C-PCM and meta-GGA Hessian, CC/C-PCM, Gaussian charge scheme
   Yang Guo               : DLPNO-NEVPT2, F12-NEVPT2, CIM, IAO-localization
   Andreas Hansen         : Spin unrestricted coupled pair/coupled cluster methods
   Benjamin Helmich-Paris : MC-RPA, TRAH-SCF, COSX integrals
   Lee Huntington         : MR-EOM, pCC
   Robert Izsak           : Overlap fitted RIJCOSX, COSX-SCS-MP3, EOM
   Marcus Kettner         : VPT2
   Christian Kollmar      : KDIIS, OOCD, Brueckner-CCSD(T), CCSD density, CASPT2, CASPT2-K
   Simone Kossmann        : Meta GGA functionals, TD-DFT gradient, OOMP2, MP2 Hessian
   Martin Krupicka        : Initial AUTO-CI
   Lucas Lang             : DCDCAS
   Marvin Lechner         : AUTO-CI (C++ implementation), FIC-MRCC
   Dagmar Lenk            : GEPOL surface, SMD
   Dimitrios Liakos       : Extrapolation schemes; Compound Job, initial MDCI parallelization
   Dimitrios Manganas     : Further ROCIS development; embedding schemes
   Dimitrios Pantazis     : SARC Basis sets
   Anastasios Papadopoulos: AUTO-CI, single reference methods and gradients
   Taras Petrenko         : DFT Hessian,TD-DFT gradient, ASA, ECA, R-Raman, ABS, FL, XAS/XES, NRVS
   Peter Pinski           : DLPNO-MP2, DLPNO-MP2 Gradient
   Christoph Reimann      : Effective Core Potentials
   Marius Retegan         : Local ZFS, SOC
   Christoph Riplinger    : Optimizer, TS searches, QM/MM, DLPNO-CCSD(T), (RO)-DLPNO pert. Triples
   Tobias Risthaus        : Range-separated hybrids, TD-DFT gradient, RPA, STAB
   Michael Roemelt        : Original ROCIS implementation
   Masaaki Saitow         : Open-shell DLPNO-CCSD energy and density
   Barbara Sandhoefer     : DKH picture change effects
   Avijit Sen             : IP-ROCIS
   Kantharuban Sivalingam : CASSCF convergence, NEVPT2, FIC-MRCI
   Bernardo de Souza      : ESD, SOC TD-DFT
   Georgi Stoychev        : AutoAux, RI-MP2 NMR, DLPNO-MP2 response
   Willem Van den Heuvel  : Paramagnetic NMR
   Boris Wezisla          : Elementary symmetry handling
   Frank Wennmohs         : Technical directorship


 We gratefully acknowledge several colleagues who have allowed us to
 interface, adapt or use parts of their codes:
   Stefan Grimme, W. Hujo, H. Kruse, P. Pracht,  : VdW corrections, initial TS optimization,
                  C. Bannwarth, S. Ehlert          DFT functionals, gCP, sTDA/sTD-DF
   Ed Valeev, F. Pavosevic, A. Kumar             : LibInt (2-el integral package), F12 methods
   Garnet Chan, S. Sharma, J. Yang, R. Olivares  : DMRG
   Ulf Ekstrom                                   : XCFun DFT Library
   Mihaly Kallay                                 : mrcc  (arbitrary order and MRCC methods)
   Jiri Pittner, Ondrej Demel                    : Mk-CCSD
   Frank Weinhold                                : gennbo (NPA and NBO analysis)
   Christopher J. Cramer and Donald G. Truhlar   : smd solvation model
   Lars Goerigk                                  : TD-DFT with DH, B97 family of functionals
   V. Asgeirsson, H. Jonsson                     : NEB implementation
   FAccTs GmbH                                   : IRC, NEB, NEB-TS, DLPNO-Multilevel, CI-OPT
                                                   MM, QMMM, 2- and 3-layer-ONIOM, Crystal-QMMM,
                                                   LR-CPCM, SF, NACMEs, symmetry and pop. for TD-DFT,
                                                   nearIR, NL-DFT gradient (VV10), updates on ESD,
                                                   ML-optimized integration grids
   S Lehtola, MJT Oliveira, MAL Marques          : LibXC Library
   Liviu Ungur et al                             : ANISO software


 Your calculation uses the libint2 library for the computation of 2-el integrals
 For citations please refer to: http://libint.valeyev.net

 Your ORCA version has been built with support for libXC version: 5.1.0
 For citations please refer to: https://tddft.org/programs/libxc/

 This ORCA versions uses:
   CBLAS   interface :  Fast vector & matrix operations
   LAPACKE interface :  Fast linear algebra routines
   SCALAPACK package :  Parallel linear algebra routines
   Shared memory     :  Shared parallel matrices
   BLAS/LAPACK       :  OpenBLAS 0.3.15  USE64BITINT DYNAMIC_ARCH NO_AFFINITY SkylakeX SINGLE_THREADED
        Core in use  :  SkylakeX
   Copyright (c) 2011-2014, The OpenBLAS Project




***************************************
The coordinates will be read from file: structure_opt.xyz
***************************************


Your calculation utilizes the atom-pairwise dispersion correction
based on tight binding partial charges (D4)
Cite in your paper:
E.Caldeweyher, C.Bannwarth, S.Grimme, J.Chem.Phys., (2017), 147, 034112.
E.Caldeweyher, S.Ehlert, A.Hansen, H.Neugebauer, S.Grimme, J.Chem.Phys., (2018), in progress.
   

Your calculation utilizes the SMD solvation module
Please cite in your paper:
A.V. Marenich, C.J. Cramer, D.G. Truhlar J. Phys. Chem. B, 113, (2009), 6378 

XCFun DFT library Copyright 2009-2010 Ulf Ekstrom and contributors.
See http://admol.org/xcfun for more information.
This is free software; see the source code for copying conditions.
There is ABSOLUTELY NO WARRANTY; not even for MERCHANTABILITY or FITNESS FOR A PARTICULAR PURPOSE.
For details see the documentation.
Scientific users of this library should cite U. Ekstrom, L. Visscher, R. Bast, A. J. Thorvaldsen and K. Ruud;
J.Chem.Theor.Comp. 2010, DOI: 10.1021/ct100117s
XCFun Version 0.99 

Your calculation utilizes a Nudged-Elastic-Band implementation
 by V.Asgeirsson, C. Riplinger & H. Jonsson
Please cite in your paper:
 V. Asgeirsson et al., in prep. (2019)
   

================================================================================

----- Orbital basis set information -----
Your calculation utilizes the basis: 6-311++G**
   H, Li - Ne  : R. Krishnan, J. S. Binkley, R. Seeger and J. A. Pople, J. Chem. Phys. 72, 650 (1980).
   Na - Ar     : A. D. McLean and G. S. Chandler J. Chem. Phys. 72, 5639, (1980).
   K  - Ca     : J.-P. Blaudeau, M. P. McGrath, L. A. Curtiss and L. Radom, J. Chem. Phys. 107, 5016 (1997).
   Ga - Kr     : L. A. Curtiss, M. P. McGrath, J.-P. Blandeau, N. E. Davis, R. C. Binning and L. Radom, J. Chem. Phys. 103, 6104 (1995).
   Pol./Diff.
   H, Li - Cl  : T. Clark, J. Chandrasekhar and P. v. R. Schleyer, J. Comp. Chem. 4, 294 (1983).
   H - Ne      : M. J. Frisch, J. A. Pople and J. S. Binkley, J. Chem. Phys. 80, 3265 (1984).

----- AuxJ basis set information -----
Your calculation utilizes the auxiliary basis: def2/J
   F. Weigend, Phys. Chem. Chem. Phys. 8, 1057 (2006).

================================================================================
                                        WARNINGS
                       Please study these warnings very carefully!
================================================================================


WARNING: The environment variable RSH_COMMAND is not set!
  ===> : All Displacements for the Numerical Hessian calculation
         will be started on localhost

WARNING: Geometry Optimization
  ===> : Switching off AutoStart
         For restart on a previous wavefunction, please use MOREAD

INFO   : the flag for use of the SHARK integral package has been found!

================================================================================
                                       INPUT FILE
================================================================================
NAME = TS_search_opt_without_h.inp
|  1> !wb97x 6-311++G** D4 NEB-TS OPT NUMFREQ CPCM(WATER)
|  2> %maxcore  3500
|  3> %pal
|  4> nprocs 24
|  5> end
|  6> %cpcm
|  7> smd true
|  8> SMDsolvent "water"
|  9> end
| 10> %geom
| 11> MaxIter 1000   # allows for n optimization cycles
| 12> EnforceStrictConvergence False
| 13> end
| 14> %NEB NEB_END_XYZFILE "2f3_prod_opt.xyz" END
| 15> * XYZfile -1 1 structure_opt.xyz
| 16> 
| 17>                          ****END OF INPUT****
================================================================================


------------------------------------------------------------------------------- 
                         Nudged Elastic Band Calculation                       
------------------------------------------------------------------------------- 

Number of images (incl. end points)     ....  10
Number of intermediate images           ....  8
Number of optimized images              ....  8
Optimization of end points before NEB   ....  NO
Use existing gbw files for MO input     ....  NO
Number of atoms                         ....  18
Number of (active) degrees of freedom   ....  54
Constrained atoms                       ....  None

-----------------------------------------
  REACTANT (ANGSTROEM)
-----------------------------------------
C      0.010582    -0.033879     1.856484 
N      1.130711    -0.213127     2.488150 
C      1.197321    -0.199015     3.819205 
C      0.087523     0.003423     4.609464 
C     -1.115808     0.196394     3.962769 
C     -1.184171     0.181780     2.577977 
N     -2.444294     0.384882     1.910131 
O     -2.523361     0.376046     0.664690 
O     -3.418682     0.563383     2.614288 
F      0.016959    -0.058954     0.506733 
H      2.181639    -0.349043     4.249162 
H      0.153251     0.010112     5.689326 
H     -2.025555     0.361164     4.525861 
C      2.189619    -6.748957     5.161339 
H      2.594514    -7.562136     4.552431 
H      1.320862    -7.115950     5.714809 
H      2.954196    -6.424516     5.872667 
S      1.708693    -5.369608     4.104514 

-----------------------------------------
  PRODUCT (ANGSTROEM)
-----------------------------------------
C     -0.006655     0.014080     1.789576 
N      1.150760    -0.163122     2.425247 
C      1.177726    -0.139964     3.759145 
C      0.054738     0.057580     4.546999 
C     -1.158972     0.233636     3.911162 
C     -1.178720     0.217442     2.525234 
N     -2.493686     0.427964     1.904940 
O     -2.584738     1.164910     0.947848 
O     -3.439094    -0.145340     2.414303 
F      3.139899     2.499865     0.919104 
H      2.152169    -0.281946     4.215772 
H      0.130494     0.071637     5.627108 
H     -2.077395     0.389730     4.465403 
C      0.049505     1.625975    -0.482258 
H     -0.875798     2.113075    -0.187252 
H      0.131238     1.624494    -1.570971 
H      0.921382     2.132605    -0.060262 
S      0.064147    -0.119619     0.009902 



----------------------
NEB settings
----------------------
Method type                             ....  climbing image
Threshold for climbing image            ....  2.00e-02 Eh/Bohr 
Free endpoints                          ....  off 
Tangent type                            ....  improved 
Number of intermediate images           ....  8 
Number of images free to move           ....  8 
Spring type for image distribution      ....  distance between adjacent images 
Spring constant                         ....  energy weighted (0.0100 -to- 0.1000) Eh/Bohr^2 
Spring force perp. to the path          ....  none 
Generation of initial path              ....  image dependent pair potential 
Initial path via TS guess               ....  off 

Minimization of RMSD: Rotation          ....  always 
Minimization of RMSD: Translation type  ....  centroid 
Center fixed to origin                  ....  true 
Remove external force                   ....  true 

Reparametrization of the path           ....  off 
Convergence thresholds:
Convergence monitored for               ....  all images
Scaling factor                          ....  10.00

Convergence parameters for regular images:
               Max(|Fp|)                ....  2.00e-02 Eh/Bohr
               RMS(Fp)                  ....  1.00e-02 Eh/Bohr

Convergence parameters for climbing image:
               Max(|F|)                 ....  2.00e-03 Eh/Bohr
               RMS(F)                   ....  1.00e-03 Eh/Bohr
Optimization method:
Method                                  ....  L-BFGS
Max. iterations                         ....  500 
Step size                               ....  1.00 
Maximum allowed step size               ....  0.10 Bohr

LBFGS parameters: 
               Memory                   ....  20 
               Initial step size        ....  0.0010 
               Estimate curvature       ....  YES 
               Reset on maxmove         ....  YES 
               Reparam. on reset        ....  NO 
Generation of  the initial path:
Minimize RMSD between reactant and product configurations     .... done
       RMSD before minimization         ....  5.9922 Bohr
       RMSD after minimization          ....  3.1954 Bohr
Performing linear interpolation         ....  done
Interpolation using                     ....  IDPP (Image Dependent Pair Potential)
IDPP-Settings:
       Remove global transl. and rot.   ...   true
       Convergence tolerance            ....  0.0100 1/Ang.^3
       Max. numer of iterations         ....    7000
       Spring constant                  ....  1.0000 1/Ang.^4
       Time step                        ....  0.0100 fs
       Max. movement per iteration      ....  0.0500 Ang.
       Full print                       ....  false 
idpp initial path generation successfully converged in 115 iterations
Displacement along initial path:             25.4879 Bohr
Writing initial trajectory to file      ....  TS_search_opt_without_h_initial_path_trj.xyz



----------------------
NEB OPTIMIZATION      
----------------------

Following output files will be written:
Energy profile during opt. written to    ....  TS_search_opt_without_h.interp
Optimization log-file                    ....  TS_search_opt_without_h.NEB.log
Current trajectory will be written to    ....  TS_search_opt_without_h_MEP_trj.xyz
       and to allxyz file                ....  TS_search_opt_without_h_MEP.allxyz
       and individual images to xyz file ....  TS_search_opt_without_h_im{NIm}.xyz
Trajectory history will be written to    ....  TS_search_opt_without_h_MEP_ALL_trj.xyz
Converged CI will be written to          ....  TS_search_opt_without_h_NEB-CI_converged.xyz
Converged TS will be written to          ....  TS_search_opt_without_h_NEB-TS_converged.xyz

Single point energy and gradient calculation of reactant and
product configurations (have to be performed only once)
Properties of fixed NEB end points:
               Reactant:
                         E               ....   -990.268342 Eh
                         RMS(F)          ....      0.010115 Eh/Bohr
                         MAX(|F|)        ....      0.036988 Eh/Bohr
      Warning: Reactant seems to be less converged than convergence tolerances.
               You might want to use free end NEB or preopt_ends true.
               Product:
                         E               ....   -990.305453 Eh
                         RMS(F)          ....      0.001276 Eh/Bohr
                         MAX(|F|)        ....      0.004686 Eh/Bohr



Starting iterations:

Optim.  Iteration  HEI  E(HEI)-E(0)  max(|Fp|)   RMS(Fp)    dS
Switch-on CI threshold               0.020000 
   LBFGS     0      4    0.183745    0.103086   0.018590  25.4879       
   LBFGS     1      4    0.162210    0.076021   0.010395  25.4740       
   LBFGS     2      4    0.162653    0.104531   0.013249  25.4637       
   LBFGS     3      4    0.160256    0.061260   0.010129  25.4523       
   LBFGS     4      4    0.162623    0.084535   0.012290  25.4530       
   LBFGS     5      4    0.157145    0.099576   0.011113  25.4616       
   LBFGS     6      4    0.156458    0.100049   0.012010  25.4697       
   LBFGS     7      4    0.156031    0.103007   0.012247  25.4905       
   LBFGS     8      4    0.152580    0.055345   0.007322  25.4924       
   LBFGS     9      4    0.153866    0.066965   0.009015  25.5051       
   LBFGS    10      4    0.156809    0.086030   0.011003  25.5411       
   LBFGS    11      4    0.154019    0.097811   0.010027  25.5666       
   LBFGS    12      4    0.150869    0.056750   0.008299  25.5835       
   LBFGS    13      4    0.149514    0.044369   0.007798  25.6411       
   LBFGS    14      4    0.150675    0.058477   0.008637  25.6622       
   LBFGS    15      4    0.150123    0.060328   0.009427  25.6991       
   LBFGS    16      4    0.150683    0.065442   0.010204  25.7717       
   LBFGS    17      4    0.151112    0.075529   0.009298  25.7992       
   LBFGS    18      4    0.148021    0.029642   0.005754  25.8112       
   LBFGS    19      4    0.151056    0.070100   0.007794  25.8845       
   LBFGS    20      4    0.152457    0.099001   0.008525  25.9140       
   LBFGS    21      4    0.148404    0.040198   0.005649  25.9287       
   LBFGS    22      4    0.149008    0.040376   0.007188  26.0225       
   LBFGS    23      4    0.150249    0.075757   0.007013  26.0536       
   LBFGS    24      4    0.147205    0.027647   0.005360  26.0772       
   LBFGS    25      4    0.150516    0.075797   0.008255  26.1857       
   LBFGS    26      4    0.148647    0.061862   0.005301  26.2090       
   LBFGS    27      4    0.146708    0.024729   0.003920  26.2275       
   LBFGS    28      4    0.148455    0.041203   0.007074  26.3360       
   LBFGS    29      4    0.148058    0.060111   0.005352  26.3630       
   LBFGS    30      4    0.146039    0.018112   0.003814  26.3858       

Image  4 will be converted to a climbing image in the next iteration (max(|Fp|) < 0.0200) 

Optim.  Iteration  CI   E(CI)-E(0)   max(|Fp|)   RMS(Fp)    dS     max(|FCI|)   RMS(FCI)
Convergence thresholds               0.020000   0.010000            0.002000    0.001000 
   LBFGS    31      4    0.145859    0.013215   0.002828  26.4049    0.008311    0.002018       
   LBFGS    32      4    0.145934    0.043431   0.006612  26.5152    0.011626    0.004478       
   LBFGS    33      4    0.146593    0.057249   0.008814  26.6525    0.026770    0.008420       
   LBFGS    34      4    0.145521    0.017270   0.003311  26.6770    0.025939    0.005773       
   LBFGS    35      4    0.145038    0.011621   0.002930  26.6990    0.007084    0.001796       
   LBFGS    36      4    0.146113    0.049450   0.005829  26.8100    0.044449    0.008755       
   LBFGS    37      4    0.148288    0.060773   0.007583  26.9610    0.070881    0.014002       
   LBFGS    38      4    0.144627    0.013107   0.002837  26.9706    0.016822    0.004453       
   LBFGS    39      4    0.144300    0.009992   0.002242  26.9821    0.008868    0.002317       
   LBFGS    40      4    0.144547    0.023468   0.004392  27.0721    0.016985    0.004838       
   LBFGS    41      4    0.145446    0.034495   0.006239  27.2051    0.027651    0.008677       
   LBFGS    42      4    0.143921    0.020783   0.002859  27.2277    0.030769    0.006733       
   LBFGS    43      4    0.143306    0.008397   0.002151  27.2470    0.010708    0.002448       
   LBFGS    44      4    0.143504    0.016683   0.002879  27.2824    0.023789    0.004870       
   LBFGS    45      4    0.144757    0.027842   0.004565  27.4097    0.050107    0.010185       
   LBFGS    46      4    0.142706    0.019489   0.002334  27.4049    0.014204    0.004158       

Possible intermediate minimum found at image(s): 1 
  => have a look at the .interp file.
  => it is often a good idea to divide the path calculation into smaller fragments. 

   LBFGS    47      4    0.142396    0.008365   0.001780  27.4063    0.009275    0.002596       
   LBFGS    48      4    0.142538    0.016766   0.002853  27.4332    0.014213    0.004720       
   LBFGS    49      4    0.143405    0.037678   0.004453  27.4993    0.027498    0.008374       
   LBFGS    50      4    0.141455    0.026360   0.002743  27.5126    0.018324    0.004691       
   LBFGS    51      4    0.140936    0.011097   0.001762  27.5295    0.006110    0.001906       
   LBFGS    52      4    0.140889    0.008547   0.001985  27.5689    0.007774    0.003003       
   LBFGS    53      4    0.141161    0.015785   0.002610  27.6470    0.025398    0.006372       
   LBFGS    54      4    0.140248    0.030456   0.003686  27.7371    0.015689    0.005749       
   LBFGS    55      4    0.139027    0.025370   0.002378  27.7139    0.007547    0.002854       
   LBFGS    56      4    0.138645    0.014433   0.001803  27.6991    0.007603    0.001798       
   LBFGS    57      4    0.138377    0.007969   0.001574  27.6776    0.007904    0.002983       
   LBFGS    58      4    0.137708    0.019504   0.002587  27.6819    0.009622    0.003792       
   LBFGS    59      4    0.136354    0.025246   0.002947  27.7126    0.010600    0.003830       
   LBFGS    60      4    0.135592    0.031649   0.003469  27.7483    0.009281    0.001957       
   LBFGS    61      4    0.135371    0.017431   0.001921  27.7744    0.009392    0.001906       
   LBFGS    62      4    0.134939    0.008642   0.001476  27.8139    0.009600    0.002201       
   LBFGS    63      4    0.134262    0.011131   0.001840  27.8481    0.009849    0.002191       
   LBFGS    64      4    0.132384    0.022842   0.002907  27.9279    0.010434    0.002122       
   LBFGS    65      4    0.132122    0.026721   0.002705  27.8978    0.010465    0.001998       
   LBFGS    66      4    0.131880    0.018592   0.002083  27.8778    0.010501    0.001987       
   LBFGS    67      4    0.130744    0.010274   0.001560  27.8466    0.010650    0.002060       
   LBFGS    68      4    0.129477    0.013417   0.002155  27.8561    0.010914    0.002148       
   LBFGS    69      4    0.127092    0.022851   0.003222  27.9016    0.011064    0.002263       
   LBFGS    70      4    0.126757    0.028436   0.003317  27.9395    0.011081    0.002205       
   LBFGS    71      4    0.126465    0.014723   0.002163  27.9650    0.011077    0.002185       
   LBFGS    72      4    0.125495    0.009203   0.001640  28.0283    0.011065    0.002201       
   LBFGS    73      4    0.124355    0.017541   0.002328  28.0736    0.011024    0.002251       
   LBFGS    74      4    0.121815    0.025776   0.003403  28.1710    0.011000    0.002372       
   LBFGS    75      4    0.121451    0.030578   0.003297  28.1421    0.011007    0.002342       
   LBFGS    76      4    0.121070    0.022078   0.002558  28.1221    0.011000    0.002329       
   LBFGS    77      4    0.119165    0.016154   0.002140  28.1024    0.011002    0.002410       

Possible intermediate minimum found at image(s): 1 
  => have a look at the .interp file.
  => it is often a good idea to divide the path calculation into smaller fragments. 

   LBFGS    78      4    0.116926    0.027170   0.003516  28.1432    0.010938    0.002526       
   LBFGS    79      4    0.113804    0.035828   0.004630  28.2335    0.010707    0.002661       
   LBFGS    80      4    0.113226    0.040223   0.004812  28.2694    0.010793    0.002638       
   LBFGS    81      4    0.112778    0.019824   0.002791  28.2884    0.010834    0.002632       
   LBFGS    82      4    0.111554    0.013147   0.002060  28.3233    0.010928    0.002682       
   LBFGS    83      4    0.109955    0.019803   0.003001  28.3682    0.010990    0.002770       
   LBFGS    84      4    0.106787    0.032520   0.004169  28.4708    0.010884    0.002941       
   LBFGS    85      4    0.106111    0.029659   0.003977  28.4645    0.010893    0.002928       
   LBFGS    86      4    0.105523    0.019019   0.002849  28.4604    0.010873    0.002932       
   LBFGS    87      4    0.102031    0.019091   0.003039  28.4804    0.010588    0.003094       
   LBFGS    88      4    0.100123    0.032916   0.004270  28.5324    0.010835    0.003178       
   LBFGS    89      4    0.098263    0.020010   0.003145  28.5925    0.011732    0.003263       
   LBFGS    90      4    0.096459    0.021940   0.003511  28.6424    0.012631    0.003385       
   LBFGS    91      4    0.091693    0.030729   0.004350  28.7808    0.015505    0.003758       
   LBFGS    92      4    0.090627    0.036943   0.004446  28.7871    0.015958    0.003794       
   LBFGS    93      4    0.089702    0.023073   0.003203  28.7964    0.016253    0.003827       
   LBFGS    94      4    0.085757    0.011282   0.002601  28.8678    0.017265    0.004033       
   LBFGS    95      4    0.080941    0.022452   0.003866  28.9516    0.017966    0.004257       
   LBFGS    96      4    0.073432    0.024528   0.004281  29.1378    0.018937    0.004576       
   LBFGS    97      4    0.064784    0.025492   0.004887  29.3695    0.020153    0.004899       
   LBFGS    98      4    0.062356    0.016459   0.002957  29.4072    0.020429    0.004846       
   LBFGS    99      4    0.058463    0.015084   0.002797  29.5099    0.020409    0.004914       
   LBFGS   100      4    0.052792    0.027074   0.005651  29.5879    0.019956    0.005019       
   LBFGS   101      4    0.046965    0.034664   0.004376  29.7340    0.019824    0.004913       
   LBFGS   102      4    0.038441    0.046650   0.005505  30.0101    0.019253    0.004937       
   LBFGS   103      4    0.036715    0.020920   0.003854  30.0625    0.018506    0.004636       
   LBFGS   104      4    0.034768    0.020322   0.002860  30.1551    0.017211    0.004354       
   LBFGS   105      4    0.032025    0.025876   0.003676  30.2750    0.015154    0.004099       
   LBFGS   106      4    0.027845    0.029475   0.004658  30.4793    0.012264    0.003790       
   LBFGS   107      4    0.026063    0.026701   0.004963  30.5239    0.012855    0.003750       
   LBFGS   108      4    0.024376    0.025898   0.003193  30.6239    0.013540    0.003660       

Possible intermediate minimum found at image(s): 1 
  => have a look at the .interp file.
  => it is often a good idea to divide the path calculation into smaller fragments. 

   LBFGS   109      4    0.022018    0.028645   0.004229  30.7803    0.014501    0.003772       
   LBFGS   110      4    0.020164    0.026837   0.005516  30.8995    0.016321    0.003919       
   LBFGS   111      4    0.018534    0.025300   0.004143  31.0261    0.017546    0.003917       
   LBFGS   112      4    0.015510    0.032107   0.004158  31.2180    0.020272    0.004208       
   LBFGS   113      4    0.012937    0.025827   0.003133  31.3285    0.022684    0.004519       
   LBFGS   114      4    0.010035    0.027238   0.003334  31.4991    0.024867    0.004894       
   LBFGS   115      3    0.018584    0.028493   0.003977  31.7536    0.028920    0.008886       
   LBFGS   116      3    0.019771    0.037141   0.004947  32.0161    0.029965    0.010740       
   LBFGS   117      3    0.016085    0.045713   0.006514  32.0736    0.031642    0.010924       
   LBFGS   118      3    0.018668    0.049359   0.007239  32.2188    0.038200    0.013524       
   LBFGS   119      3    0.014788    0.040077   0.005208  32.2292    0.019938    0.008113       
   LBFGS   120      3    0.013471    0.014163   0.002392  32.2248    0.008477    0.003349       
   LBFGS   121      3    0.015234    0.059448   0.007154  32.2391    0.026544    0.010564       
   LBFGS   122      3    0.013703    0.040433   0.004884  32.2973    0.018715    0.006684       
   LBFGS   123      3    0.012798    0.009932   0.001822  32.3026    0.004571    0.002038       
   LBFGS   124      3    0.016726    0.115857   0.012166  32.3464    0.042842    0.014937       
   LBFGS   125      3    0.012669    0.013423   0.002306  32.3326    0.005953    0.002513       
   LBFGS   126      3    0.012629    0.017394   0.002637  32.3549    0.007364    0.003033       
   LBFGS   127      3    0.012200    0.019106   0.002972  32.5103    0.009810    0.003823       
   LBFGS   128      3    0.012101    0.025133   0.003613  32.5698    0.010374    0.004354       
   LBFGS   129      3    0.011762    0.011849   0.002228  32.6104    0.006363    0.002673       
   LBFGS   130      3    0.011526    0.033434   0.004341  32.8402    0.010271    0.004224       
   LBFGS   131      3    0.011314    0.033417   0.004349  32.9252    0.009251    0.003980       
   LBFGS   132      3    0.011026    0.020960   0.002789  32.9897    0.006144    0.002617       
   LBFGS   133      3    0.010934    0.029056   0.003866  33.1021    0.007763    0.003269       
   LBFGS   134      3    0.010940    0.045518   0.005534  33.3180    0.012663    0.004950       
   LBFGS   135      3    0.010504    0.029368   0.003372  33.3824    0.007213    0.002927       
   LBFGS   136      3    0.010368    0.014385   0.001916  33.3959    0.004419    0.001928       
   LBFGS   137      3    0.010263    0.045679   0.004980  33.5274    0.008408    0.003312       
   LBFGS   138      3    0.010226    0.051787   0.005697  33.5984    0.009241    0.003874       
   LBFGS   139      3    0.010341    0.072456   0.007810  33.7289    0.012952    0.005412       

Possible intermediate minimum found at image(s): 1 
  => have a look at the .interp file.
  => it is often a good idea to divide the path calculation into smaller fragments. 

   LBFGS   140      3    0.009957    0.029133   0.004540  33.8207    0.009746    0.004022       
   LBFGS   141      3    0.009643    0.007897   0.001371  33.8120    0.004128    0.001419       
   LBFGS   142      3    0.009852    0.035746   0.004683  33.8176    0.009487    0.004039       
   LBFGS   143      3    0.009732    0.036378   0.005009  33.8495    0.009191    0.003867       
   LBFGS   144      3    0.009449    0.015106   0.001878  33.8721    0.004388    0.001822       
   LBFGS   145      2    0.013429    0.045217   0.006378  34.0612    0.086788    0.027022       
   LBFGS   146      2    0.001041    0.014093   0.002452  33.9792    0.031560    0.009613       
   LBFGS   147      2    -0.000129    0.008457   0.001629  33.9974    0.020036    0.005953       
   LBFGS   148      2    0.000624    0.014973   0.002182  34.1775    0.022865    0.008090       
   LBFGS   149      2    0.000146    0.012561   0.001983  34.2178    0.020647    0.006834       
   LBFGS   150      4    0.006971    0.024878   0.002992  34.2600    0.014760    0.005245       
   LBFGS   151      4    0.007889    0.019890   0.002474  34.4223    0.013210    0.004839       
   LBFGS   152      4    0.008463    0.027774   0.003668  34.4869    0.018606    0.006419       
   LBFGS   153      4    0.008131    0.015212   0.002186  34.5315    0.012829    0.004288       
   LBFGS   154      4    0.008303    0.015180   0.002544  34.7440    0.006067    0.002295       
   LBFGS   155      4    0.008651    0.042088   0.005780  34.8629    0.012589    0.004284       
   LBFGS   156      4    0.008460    0.015064   0.002615  34.9493    0.006501    0.002476       
   LBFGS   157      4    0.008436    0.014841   0.002320  35.0688    0.004470    0.001810       
   LBFGS   158      4    0.008570    0.029642   0.004133  35.3214    0.009726    0.003338       
   LBFGS   159      4    0.008377    0.014561   0.002551  35.3536    0.004671    0.001828       
   LBFGS   160      4    0.008355    0.014975   0.002392  35.3881    0.005231    0.001963       
   LBFGS   161      4    0.008152    0.010321   0.001602  35.5232    0.003039    0.001347       
   LBFGS   162      4    0.008283    0.030617   0.004708  35.7028    0.010640    0.003708       
   LBFGS   163      4    0.007989    0.007661   0.001355  35.7132    0.002648    0.000966       
   LBFGS   164      4    0.007977    0.008447   0.001578  35.7352    0.002962    0.001320       
   LBFGS   165      4    0.007787    0.013554   0.002440  35.9119    0.004736    0.001886       
   LBFGS   166      4    0.007918    0.030314   0.004691  36.0447    0.010493    0.003701       
   LBFGS   167      4    0.007627    0.006168   0.000998  36.0534    0.002509    0.000803       
   LBFGS   168      4    0.007622    0.008666   0.001525  36.0737    0.002857    0.001294       
   LBFGS   169      4    0.007524    0.011283   0.001913  36.1969    0.004111    0.001659       
   LBFGS   170      4    0.007324    0.015967   0.002398  36.4617    0.005695    0.002108       

Possible intermediate minimum found at image(s): 1 
  => have a look at the .interp file.
  => it is often a good idea to divide the path calculation into smaller fragments. 

   LBFGS   171      4    0.007312    0.021433   0.002871  36.5313    0.007123    0.002468       
   LBFGS   172      4    0.007186    0.007357   0.001113  36.5655    0.002764    0.001125       
   LBFGS   173      4    0.007113    0.011959   0.001710  36.6729    0.003349    0.001378       
   LBFGS   174      4    0.007074    0.030183   0.003928  36.9532    0.009330    0.003222       
   LBFGS   175      4    0.006867    0.011728   0.001514  36.9701    0.002607    0.001074       
   LBFGS   176      4    0.006842    0.007180   0.001037  36.9921    0.002290    0.000969       
   LBFGS   177      4    0.006683    0.006143   0.001012  37.1837    0.002241    0.001000       
   LBFGS   178      4    0.006491    0.012322   0.001970  37.4241    0.002200    0.000685       
   LBFGS   179      4    0.006266    0.016902   0.002608  37.7453    0.002143    0.000658       
   LBFGS   180      4    0.006228    0.024158   0.003194  37.8140    0.002122    0.000656       
   LBFGS   181      4    0.006216    0.003640   0.000667  37.8268    0.002119    0.000635       
   LBFGS   182      4    0.006191    0.016067   0.002192  37.8533    0.002112    0.000640       
   LBFGS   183      4    0.006161    0.009534   0.001424  37.8971    0.002102    0.000633       
   LBFGS   184      4    0.005973    0.011258   0.001478  38.1781    0.002041    0.000616       
   LBFGS   185      4    0.005922    0.029017   0.003673  38.2456    0.002036    0.000622       
   LBFGS   186      4    0.005922    0.003768   0.000755  38.2493    0.002034    0.000608       
   LBFGS   187      4    0.005896    0.003611   0.000626  38.2884    0.002029    0.000606       
   LBFGS   188      4    0.005717    0.017233   0.002197  38.5705    0.001993    0.000595       

                                .--------------------.
          ----------------------| CI-NEB convergence |-------------------------
          Item                value                   Tolerance       Converged
          ---------------------------------------------------------------------
          RMS(Fp)             0.0021967238            0.0100000000      YES
          MAX(|Fp|)           0.0172329742            0.0200000000      YES
          RMS(FCI)            0.0005947032            0.0010000000      YES
          MAX(|FCI|)          0.0019928794            0.0020000000      YES
          ---------------------------------------------------------------------

The elastic band and climbing image have converged successfully to a MEP in 188 iterations!


                    *********************H U R R A Y*********************
                    ***        THE NEB OPTIMIZATION HAS CONVERGED     ***
                    *****************************************************



---------------------------------------------------------------
                         PATH SUMMARY              
---------------------------------------------------------------
All forces in Eh/Bohr.

Image Dist.(Ang.)    E(Eh)   dE(kcal/mol)  max(|Fp|)  RMS(Fp)
  0     0.000    -990.26834      0.00       0.03684   0.01011
  1     3.743    -990.27467     -3.97       0.01003   0.00202
  2     7.049    -990.27582     -4.69       0.01723   0.00417
  3     8.254    -990.26752      0.51       0.00221   0.00096
  4     8.512    -990.26262      3.59       0.00202   0.00059 <= CI
  5     8.713    -990.26718      0.73       0.01175   0.00419
  6     9.911    -990.27595     -4.77       0.00442   0.00136
  7    12.626    -990.30196    -21.10       0.00298   0.00110
  8    16.294    -990.30182    -21.01       0.00203   0.00068
  9    20.411    -990.30545    -23.29       0.00425   0.00125

Straight line distance between images along the path:
        D( 0- 1) =   3.7432 Ang.
        D( 1- 2) =   3.3059 Ang.
        D( 2- 3) =   1.2053 Ang.
        D( 3- 4) =   0.2572 Ang.
        D( 4- 5) =   0.2016 Ang.
        D( 5- 6) =   1.1977 Ang.
        D( 6- 7) =   2.7153 Ang.
        D( 7- 8) =   3.6677 Ang.
        D( 8- 9) =   4.1165 Ang.

---------------------------------------------------------------
               INFORMATION ABOUT SADDLE POINT     
---------------------------------------------------------------

Climbing image                            ....  4 
Energy                                    ....  -990.26262421 Eh
Max. abs. force                           ....  1.9929e-03 Eh/Bohr

-----------------------------------------
  SADDLE POINT (ANGSTROEM)
-----------------------------------------
C      0.390589     0.192727    -0.649114 
N      1.478573     0.737637    -0.081018 
C      1.326562     1.751765     0.751245 
C      0.105076     2.374196     1.027783 
C     -1.006770     1.904888     0.365447 
C     -0.878759     0.837569    -0.521310 
N     -2.048055     0.372993    -1.191131 
O     -1.939306    -0.433418    -2.106550 
O     -3.144589     0.802106    -0.830126 
F      0.694132    -0.438548    -1.812049 
H      2.238185     2.135761     1.201774 
H      0.055987     3.236301     1.680795 
H     -1.975733     2.374645     0.486332 
C      1.024819    -3.261346     0.303414 
H      0.947228    -3.671019    -0.708098 
H      0.768143    -4.064128     1.001815 
H      2.070158    -2.996024     0.486948 
S     -0.106238    -1.856106     0.593845 

-----------------------------------------
  FORCES (Eh/Bohr)
-----------------------------------------
C      0.000203     0.000038    -0.000299 
N      0.000185    -0.000129    -0.000478 
C      0.000270    -0.000240    -0.000041 
C      0.000059    -0.000583     0.000182 
C      0.000274    -0.000427    -0.000031 
C      0.000101     0.000097    -0.000473 
N      0.000409    -0.000387    -0.000675 
O      0.000381    -0.000193    -0.000070 
O      0.000084    -0.000094    -0.000390 
F     -0.000031    -0.001299     0.000712 
H      0.000133    -0.000297    -0.000162 
H      0.000019    -0.000967     0.000755 
H     -0.000001    -0.000487     0.000260 
C     -0.000446     0.001031     0.000122 
H     -0.000877     0.001993    -0.000197 
H      0.000353     0.000308    -0.000490 
H     -0.000477     0.001361    -0.000319 
S     -0.000646     0.000323     0.001786 

-----------------------------------------
  UNIT TANGENT
-----------------------------------------
C     -0.090708    -0.543967     0.349426 
N      0.010239    -0.178487     0.155994 
C      0.001670    -0.094485     0.004027 
C     -0.038218    -0.042340     0.001219 
C      0.011915    -0.037896     0.023768 
C     -0.047476    -0.132998     0.051734 
N      0.032004    -0.018280     0.058244 
O     -0.017706    -0.040624     0.025248 
O     -0.023478     0.044627    -0.030750 
F      0.051572     0.003506    -0.018650 
H     -0.000231     0.013058    -0.085228 
H      0.005106     0.005256    -0.027373 
H      0.020016     0.018328    -0.052318 
C      0.019872     0.185973    -0.094702 
H     -0.003831     0.068410    -0.036533 
H     -0.149808     0.285012    -0.009778 
H      0.032053     0.044315    -0.021274 
S      0.187010     0.420592    -0.293054 
 => Unit tangent is an approximation to the TS mode at the saddle point

Next a TS optimization is performed on the CI from the NEB run.

         *************************************************************
         *                       TS OPTIMIZATION                     *
         *************************************************************


Following output files will be written:
Converged TS will be written to          ....  TS_search_opt_without_h_NEB-TS_converged.xyz
                                         ....  TS_search_opt_without_h.xyz
Current trajectory will be written to    ....  TS_search_opt_without_h_trj.xyz
Initial Hessian will be stored in        ....  TS_search_opt_without_h.appr.hess
Geometry optimization settings:
Update method            Update   .... Bofill
Choice of coordinates    CoordSys .... Z-matrix Internals
Initial Hessian          InHess   .... Read

Convergence Tolerances:
Energy Change            TolE     ....  5.0000e-06 Eh
Max. Gradient            TolMAXG  ....  3.0000e-04 Eh/bohr
RMS Gradient             TolRMSG  ....  1.0000e-04 Eh/bohr
Max. Displacement        TolMAXD  ....  4.0000e-03 bohr
RMS Displacement         TolRMSD  ....  2.0000e-03 bohr
Strict Convergence                ....  False
------------------------------------------------------------------------------
                        ORCA OPTIMIZATION COORDINATE SETUP
------------------------------------------------------------------------------

The optimization will be done in new redundant internal coordinates
Making redundant internal coordinates   ...  (new redundants) done
Following TS mode number                ...     0
TS-active-atoms for coordinate setup... 0 15 17 
Evaluating the initial hessian          ... (Reading Exact Hessian)...  
InHessName: TS_search_opt_without_h.appr.hess	The file <TS_search_opt_without_h.appr.hess> is opened as a .hess file
done
done
Diagonalizing the Hessian               .... done
Dimension of the hessian                .... 155
Lowest eigenvalues of the non projected Hessian:
 -0.011892421 -0.000000000 -0.000000000 -0.000000000 -0.000000000
done
Evaluating the coordinates              ...  done
Calculating the B-matrix                .... done
Calculating the G-matrix                .... done
Diagonalizing the G-matrix              .... done
The first mode is                       ....  107
The number of degrees of freedom        ....   48

    -----------------------------------------------------------------
                    Redundant Internal Coordinates


    -----------------------------------------------------------------
         Definition                    Initial Value    d2E/dq (diagonal element)
    -----------------------------------------------------------------
      1. B(N   1,C   0)                  1.3429         0.210729   
      2. B(C   2,N   1)                  1.3207         0.331722   
      3. B(C   2,C   0)                  2.2951         0.121852   
      4. B(C   3,C   0)                  2.7663         0.099684   
      5. B(C   3,C   2)                  1.3985         0.442380   
      6. B(C   4,C   3)                  1.3766         0.498651   
      7. B(C   4,C   0)                  2.4318         0.105917   
      8. B(C   5,C   0)                  1.4295         0.147203   
      9. B(C   5,C   4)                  1.3935         0.292759   
     10. B(N   6,C   0)                  2.5046         0.086566   
     11. B(N   6,C   5)                  1.4254         0.260798   
     12. B(O   7,C   0)                  2.8186         0.065465   
     13. B(O   7,N   6)                  1.2248         0.853378   
     14. B(O   8,N   6)                  1.2316         0.894783   
     15. B(F   9,C   0)                  1.3576         0.322471   
     16. B(H  10,C   2)                  1.0870         0.364321   
     17. B(H  11,C   3)                  1.0826         0.370206   
     18. B(H  12,C   4)                  1.0836         0.368827   
     19. B(H  14,C  13)                  1.0941         0.286206   
     20. B(H  15,C  13)                  1.0946         0.292245   
     21. B(H  16,C  13)                  1.0940         0.287948   
     22. B(S  17,H  16)                  2.4592         0.064434   
     23. B(S  17,H  15)                  2.4096         0.079933   
     24. B(S  17,H  14)                  2.4696         0.065632   
     25. B(S  17,N   6)                  3.4534         0.025917   
     26. B(S  17,F   9)                  2.9049         0.057476   
     27. B(S  17,C   5)                  3.0160         0.039558   
     28. B(S  17,N   1)                  3.1136         0.065515   
     29. B(S  17,C   0)                  2.4473         0.004062   
     30. B(S  17,C  13)                  1.8271         0.139426   
     31. A(N   1,C   0,F   9)          111.7105         0.012388   
     32. A(F   9,C   0,S  17)           95.2309         0.007598   
     33. A(C   5,C   0,S  17)           98.7414         0.005915   
     34. A(N   1,C   0,S  17)          106.8171         0.008644   
     35. A(C   5,C   0,F   9)          119.0053         0.011843   
     36. A(N   1,C   0,C   5)          119.9045         0.018991   
     37. A(C   0,N   1,S  17)           48.7987         0.003888   
     38. A(C   2,N   1,S  17)          116.3910         0.023944   
     39. A(C   0,N   1,C   2)          119.0072         0.034684   
     40. A(C   3,C   2,H  10)          119.5594         0.193466   
     41. A(N   1,C   2,C   3)          124.5331         0.062549   
     42. A(N   1,C   2,H  10)          115.8448         0.194343   
     43. A(C   2,C   3,C   4)          117.2932         0.065777   
     44. A(C   4,C   3,H  11)          121.6718         0.193241   
     45. A(C   2,C   3,H  11)          120.8823         0.192453   
     46. A(C   3,C   4,C   5)          119.5429         0.056275   
     47. A(C   5,C   4,H  12)          119.0238         0.191342   
     48. A(C   3,C   4,H  12)          121.3825         0.191525   
     49. A(C   0,C   5,N   6)          122.6427         0.035692   
     50. A(C   0,C   5,C   4)          118.9452         0.026916   
     51. A(C   4,C   5,S  17)          118.1841         0.016476   
     52. A(N   6,C   5,S  17)           95.3233         0.016826   
     53. A(C   0,C   5,S  17)           53.3243         0.002550   
     54. A(C   4,C   5,N   6)          118.2492         0.053589   
     55. A(C   5,N   6,O   8)          118.6243         0.245901   
     56. A(O   7,N   6,O   8)          121.8388         0.253184   
     57. A(C   5,N   6,O   7)          119.5365         0.077461   
     58. A(C   0,F   9,S  17)           57.0329         0.004709   
     59. A(H  16,C  13,S  17)          112.2294         0.094223   
     60. A(H  15,C  13,S  17)          108.5111         0.089027   
     61. A(H  14,C  13,S  17)          113.0196         0.095428   
     62. A(H  15,C  13,H  16)          107.1513         0.071628   
     63. A(H  14,C  13,H  15)          107.3764         0.073900   
     64. A(H  14,C  13,H  16)          108.2814         0.084371   
     65. A(C   0,S  17,C  13)          115.9424         0.055340   
     66. A(C   5,S  17,F   9)           47.8173         0.012184   
     67. A(N   1,S  17,F   9)           43.4256         0.012033   
     68. A(C   0,S  17,F   9)           27.7362         0.011043   
     69. A(F   9,S  17,C  13)           94.1922         0.057398   
     70. A(N   1,S  17,C   5)           46.0705         0.007964   
     71. A(C   0,S  17,C   5)           27.9343         0.004841   
     72. A(C   5,S  17,C  13)          141.8780         0.056107   
     73. A(C   0,S  17,N   1)           24.3842         0.006017   
     74. A(N   1,S  17,C  13)          106.9267         0.047042   
     75. D(S  17,N   1,C   0,C   5)    110.9147         0.007682   
     76. D(C   2,N   1,C   0,C   5)      9.9573         0.009827   
     77. D(S  17,N   1,C   0,F   9)   -102.8768         0.009231   
     78. D(C   2,N   1,C   0,S  17)   -100.9574         0.011657   
     79. D(C   2,N   1,C   0,F   9)    156.1658         0.012343   
     80. D(H  10,C   2,N   1,C   0)    178.4225         0.013305   
     81. D(C   3,C   2,N   1,S  17)    -60.0295         0.010887   
     82. D(H  10,C   2,N   1,S  17)    122.8721         0.013499   
     83. D(C   3,C   2,N   1,C   0)     -4.4791         0.013021   
     84. D(H  11,C   3,C   2,N   1)   -176.6999         0.011778   
     85. D(H  11,C   3,C   2,H  10)      0.2979         0.013655   
     86. D(C   4,C   3,C   2,H  10)    175.8812         0.012142   
     87. D(C   4,C   3,C   2,N   1)     -1.1166         0.011369   
     88. D(C   5,C   4,C   3,H  11)    176.4713         0.011209   
     89. D(C   5,C   4,C   3,C   2)      0.9251         0.009051   
     90. D(H  12,C   4,C   3,C   2)   -176.4566         0.009594   
     91. D(H  12,C   4,C   3,H  11)     -0.9105         0.012528   
     92. D(N   6,C   5,C   4,C   3)    179.9369         0.009064   
     93. D(N   6,C   5,C   0,S  17)    -70.1430         0.006645   
     94. D(S  17,C   5,C   0,F   9)    100.9947         0.008432   
     95. D(S  17,C   5,C   0,N   1)   -115.2208         0.009387   
     96. D(C   0,C   5,C   4,C   3)      4.4511         0.009011   
     97. D(N   6,C   5,C   4,H  12)     -2.6192         0.009519   
     98. D(N   6,C   5,C   0,F   9)     30.8518         0.009283   
     99. D(N   6,C   5,C   0,N   1)    174.6362         0.007376   
    100. D(C   4,C   5,C   0,S  17)    105.1341         0.009329   
    101. D(S  17,C   5,C   4,H  12)   -116.6605         0.009799   
    102. D(S  17,C   5,C   4,C   3)     65.8957         0.009083   
    103. D(C   4,C   5,C   0,F   9)   -153.8712         0.011082   
    104. D(C   4,C   5,C   0,N   1)    -10.0867         0.008247   
    105. D(C   0,C   5,C   4,H  12)   -178.1050         0.009058   
    106. D(O   8,N   6,C   5,S  17)    116.2390         0.009110   
    107. D(O   8,N   6,C   5,C   4)     -9.8153         0.010442   
    108. D(O   8,N   6,C   5,C   0)    165.4931         0.009801   
    109. D(O   7,N   6,C   5,S  17)    -63.9696         0.009521   
    110. D(O   7,N   6,C   5,C   4)    169.9761         0.010566   
    111. D(O   7,N   6,C   5,C   0)    -14.7156         0.010122   
    112. D(S  17,F   9,C   0,C   5)   -103.0178         0.007184   
    113. D(S  17,F   9,C   0,N   1)    110.4360         0.010548   
    114. D(N   1,S  17,C   5,C   4)    -78.5811         0.024933   
    115. D(N   1,S  17,C   5,C   0)     28.0111         0.008127   
    116. D(C   0,S  17,C   5,N   6)    127.3055         0.020583   
    117. D(C  13,S  17,C   5,N   6)    100.2580         0.016346   
    118. D(C  13,S  17,C   5,C   4)   -133.6397         0.017368   
    119. D(C  13,S  17,C   5,C   0)    -27.0475         0.007352   
    120. D(F   9,S  17,N   1,C   0)     38.0068         0.013176   
    121. D(C   5,S  17,N   1,C   2)     74.3611         0.024495   
    122. D(C   5,S  17,N   1,C   0)    -32.2015         0.009737   
    123. D(C   0,S  17,N   1,C   2)    106.5625         0.023596   
    124. D(C  13,S  17,N   1,C   2)   -137.5750         0.028307   
    125. D(C  13,S  17,N   1,C   0)    115.8625         0.020164   
    126. D(F   9,S  17,C   0,C   5)    120.4454         0.012140   
    127. D(F   9,S  17,C   0,N   1)   -114.5653         0.013452   
    128. D(F   9,S  17,N   1,C   2)    144.5693         0.033014   
    129. D(C   5,S  17,C   0,F   9)   -120.4454         0.012140   
    130. D(C   5,S  17,C   0,N   1)    124.9893         0.016016   
    131. D(N   1,S  17,C   0,F   9)    114.5653         0.013452   
    132. D(C   0,S  17,C   5,C   4)   -106.5922         0.022197   
    133. D(N   1,S  17,C   0,C   5)   -124.9893         0.016016   
    134. D(C  13,S  17,C   0,F   9)     41.3640         0.007262   
    135. D(C  13,S  17,C   0,C   5)    161.8094         0.004680   
    136. D(N   1,S  17,C   5,N   6)    155.3166         0.023490   
    137. D(F   9,S  17,C  13,H  16)     72.9732         0.013168   
    138. D(F   9,S  17,C  13,H  15)   -168.8113         0.013519   
    139. D(C  13,S  17,C   0,N   1)    -73.2013         0.009643   
    140. D(C   5,S  17,C  13,H  16)     68.7147         0.012891   
    141. D(C   5,S  17,C  13,H  15)   -173.0698         0.013085   
    142. D(C   5,S  17,C  13,H  14)    -54.0938         0.012461   
    143. D(N   1,S  17,C  13,H  15)    148.8252         0.014972   
    144. D(N   1,S  17,C  13,H  14)    -92.1988         0.014789   
    145. D(C   0,S  17,C  13,H  16)     55.0115         0.011283   
    146. D(C   0,S  17,C  13,H  15)    173.2270         0.011671   
    147. D(C   0,S  17,C  13,H  14)    -67.7970         0.011358   
    148. D(N   1,S  17,C  13,H  16)     30.6097         0.014549   
    149. D(C   5,S  17,F   9,C   0)     33.0261         0.009195   
    150. D(N   1,S  17,F   9,C   0)    -33.1087         0.012201   
    151. D(C  13,S  17,F   9,C   0)   -143.4271         0.007779   
    152. D(F   9,S  17,C  13,H  14)    -49.8353         0.013107   
    153. D(F   9,S  17,C   5,N   6)     94.5222         0.022544   
    154. D(F   9,S  17,C   5,C   4)   -139.3755         0.028134   
    155. D(F   9,S  17,C   5,C   0)    -32.7833         0.010002   
    -----------------------------------------------------------------

Number of atoms                         .... 18
Number of degrees of freedom            .... 155

         *************************************************************
         *                GEOMETRY OPTIMIZATION CYCLE   1            *
         *************************************************************


           ************************************************************
           *        Program running with 24 parallel MPI-processes    *
           *              working on a common directory               *
           ************************************************************
------------------------------------------------------------------------------
                           ORCA GTO INTEGRAL CALCULATION
                           -- RI-GTO INTEGRALS CHOSEN --
------------------------------------------------------------------------------
------------------------------------------------------------------------------
                   ___                                                        
                  /   \      - P O W E R E D   B Y -                         
                 /     \                                                     
                 |  |  |   _    _      __       _____    __    __             
                 |  |  |  | |  | |    /  \     |  _  \  |  |  /  |          
                  \  \/   | |  | |   /    \    | | | |  |  | /  /          
                 / \  \   | |__| |  /  /\  \   | |_| |  |  |/  /          
                |  |  |   |  __  | /  /__\  \  |    /   |      \           
                |  |  |   | |  | | |   __   |  |    \   |  |\   \          
                \     /   | |  | | |  |  |  |  | |\  \  |  | \   \       
                 \___/    |_|  |_| |__|  |__|  |_| \__\ |__|  \__/        
                                                                              
                      - O R C A' S   B I G   F R I E N D -                    
                                      &                                       
                       - I N T E G R A L  F E E D E R -                       
                                                                              
 v1 FN, 2020, v2 2021                                                         
------------------------------------------------------------------------------


Reading SHARK input file TS_search_opt_without_h.SHARKINP.tmp ... ok
----------------------
SHARK INTEGRAL PACKAGE
----------------------

Number of atoms                             ...     18
Number of basis functions                   ...    314
Number of shells                            ...    154
Maximum angular momentum                    ...      2
Integral batch strategy                     ... SHARK/LIBINT Hybrid
RI-J (if used) integral strategy            ... SPLIT-RIJ (Revised 2003 algorithm where possible)
Printlevel                                  ...      1
Contraction scheme used                     ... SEGMENTED contraction
Coulomb Range Separation                    ... NOT USED
Exchange Range Separation                   ... Long Range
   Mu parameter                             ...  0.300000
   Scaling (regular/separated)              ...  0.157706  0.842294
Finite Nucleus Model                        ... NOT USED
Auxiliary Coulomb fitting basis             ... AVAILABLE
   # of basis functions in Aux-J            ...    656
   # of shells in Aux-J                     ...    212
   Maximum angular momentum in Aux-J        ...      4
Auxiliary J/K fitting basis                 ... NOT available
Auxiliary Correlation fitting basis         ... NOT available
Auxiliary 'external' fitting basis          ... NOT available
Integral threshold                          ...     2.500000e-11
Primitive cut-off                           ...     2.500000e-12
Primitive pair pre-selection threshold      ...     2.500000e-12

Calculating pre-screening integrals         ... done (  0.1 sec) Dimension = 154
Organizing shell pair data                  ... done (  0.1 sec)
Shell pair information
Total number of shell pairs                 ...     11935
Shell pairs after pre-screening             ...     10246
Total number of primitive shell pairs       ...     38500
Primitive shell pairs kept                  ...     23388
          la=0 lb=0:   3138 shell pairs
          la=1 lb=0:   4173 shell pairs
          la=1 lb=1:   1431 shell pairs
          la=2 lb=0:    847 shell pairs
          la=2 lb=1:    587 shell pairs
          la=2 lb=2:     70 shell pairs

Calculating one electron integrals          ... done (  0.0 sec)
Calculating RI/J V-Matrix + Cholesky decomp.... done (  0.1 sec)
Calculating Nuclear repulsion               ... done (  0.0 sec) ENN=    809.892402174563 Eh

SHARK setup successfully completed in   0.4 seconds

Maximum memory used throughout the entire GTOINT-calculation: 17.0 MB


           ************************************************************
           *        Program running with 24 parallel MPI-processes    *
           *              working on a common directory               *
           ************************************************************
-------------------------------------------------------------------------------
                                 ORCA SCF
-------------------------------------------------------------------------------

------------
SCF SETTINGS
------------
Hamiltonian:
 Density Functional     Method          .... DFT(GTOs)
 Exchange Functional    Exchange        .... WB97X
 Correlation Functional Correlation     .... WB97X
 Gradients option       PostSCFGGA      .... off
 Hybrid DFT is turned on
   Fraction HF Exchange ScalHFX         ....  0.157706
   Scaling of DF-GGA-X  ScalDFX         ....  0.000000
   Scaling of DF-GGA-C  ScalDFC         ....  1.000000
   Scaling of DF-LDA-C  ScalLDAC        ....  1.000000
   Perturbative correction              ....  0.000000
   Density functional embedding theory  .... OFF
 Long-range corrected/Screened/Range-Separated Hybrid DFT is turned on
   Amount of maximum screened exact exchange              ....  0.842294
   Range separation parameter mu (erf(mu*r12)/r12)        ....  0.300000
 RI-approximation to the Coulomb term is turned on
   Number of AuxJ basis functions       .... 656
   RIJ-COSX (HFX calculated with COS-X)).... on


General Settings:
 Integral files         IntName         .... TS_search_opt_without_h
 Hartree-Fock type      HFTyp           .... RHF
 Total Charge           Charge          ....   -1
 Multiplicity           Mult            ....    1
 Number of Electrons    NEL             ....   98
 Basis Dimension        Dim             ....  314
 Nuclear Repulsion      ENuc            ....    809.8924021746 Eh

Convergence Acceleration:
 DIIS                   CNVDIIS         .... on
   Start iteration      DIISMaxIt       ....    12
   Startup error        DIISStart       ....  0.200000
   # of expansion vecs  DIISMaxEq       ....     5
   Bias factor          DIISBfac        ....   1.050
   Max. coefficient     DIISMaxC        ....  10.000
 Trust-Rad. Augm. Hess. CNVTRAH         .... auto
   Auto Start mean grad. ratio tolernc. ....  1.125000
   Auto Start start iteration           ....     1
   Auto Start num. interpolation iter.  ....    10
   Max. Number of Micro iterations      ....    16
   Max. Number of Macro iterations      .... Maxiter - #DIIS iter
   Number of Davidson start vectors     ....     2
   Converg. threshold I  (grad. norm)   ....   1.000e-05
   Converg. threshold II (energy diff.) ....   1.000e-08
   Grad. Scal. Fac. for Micro threshold ....   0.100
   Minimum threshold for Micro iter.    ....   0.010
   NR start threshold (gradient norm)   ....   0.001
   Initial trust radius                 ....   0.400
   Minimum AH scaling param. (alpha)    ....   1.000
   Maximum AH scaling param. (alpha)    .... 1000.000
   Orbital update algorithm             .... Taylor
   White noise on init. David. guess    .... on
   Maximum white noise                  ....   0.010
   Quad. conv. algorithm                .... NR
 SOSCF                  CNVSOSCF        .... on
   Start iteration      SOSCFMaxIt      ....   150
   Startup grad/error   SOSCFStart      ....  0.003300
 Level Shifting         CNVShift        .... on
   Level shift para.    LevelShift      ....    0.2500
   Turn off err/grad.   ShiftErr        ....    0.0010
 Zerner damping         CNVZerner       .... off
 Static damping         CNVDamp         .... on
   Fraction old density DampFac         ....    0.7000
   Max. Damping (<1)    DampMax         ....    0.9800
   Min. Damping (>=0)   DampMin         ....    0.0000
   Turn off err/grad.   DampErr         ....    0.1000
 Fernandez-Rico         CNVRico         .... off

SCF Procedure:
 Maximum # iterations   MaxIter         ....   125
 SCF integral mode      SCFMode         .... Direct
   Integral package                     .... SHARK and LIBINT hybrid scheme
 Reset frequency        DirectResetFreq ....    20
 Integral Threshold     Thresh          ....  2.500e-11 Eh
 Primitive CutOff       TCut            ....  2.500e-12 Eh

Convergence Tolerance:
 Convergence Check Mode ConvCheckMode   .... Total+1el-Energy
 Convergence forced     ConvForced      .... 0
 Energy Change          TolE            ....  1.000e-08 Eh
 1-El. energy change                    ....  1.000e-05 Eh
 Orbital Gradient       TolG            ....  1.000e-05
 Orbital Rotation angle TolX            ....  1.000e-05
 DIIS Error             TolErr          ....  5.000e-07


Diagonalization of the overlap matrix:
Smallest eigenvalue                        ... 2.726e-06
Time for diagonalization                   ...    0.015 sec
Threshold for overlap eigenvalues          ... 1.000e-08
Number of eigenvalues below threshold      ... 0
Time for construction of square roots      ...    0.034 sec
Total time needed                          ...    0.050 sec

---------------------
INITIAL GUESS: MOREAD
---------------------
Guess MOs are being read from file: TS_search_opt_without_h.gbw
Input Geometry matches current geometry (good)
Input basis set matches current basis set (good)
MOs were renormalized
MOs were reorthogonalized (Cholesky)
                      ------------------
                      INITIAL GUESS DONE (   0.0 sec)
                      ------------------
-------------------
DFT GRID GENERATION
-------------------

General Integration Accuracy     IntAcc      ... 4.388
Radial Grid Type                 RadialGrid  ... OptM3 with GC (2021)
Angular Grid (max. ang.)         AngularGrid ... 4 (Lebedev-302)
Angular grid pruning method      GridPruning ... 4 (adaptive)
Weight generation scheme         WeightScheme... Becke
Basis function cutoff            BFCut       ... 1.0000e-11
Integration weight cutoff        WCut        ... 1.0000e-14
Angular grids for H and He will be reduced by one unit
Partially contracted basis set               ... off
Rotationally invariant grid construction     ... off

Total number of grid points                  ...    97709
Total number of batches                      ...     1537
Average number of points per batch           ...       63
Average number of grid points per atom       ...     5428
Time for grid setup =    0.806 sec

--------------------
COSX GRID GENERATION
--------------------

GRIDX 1
-------
General Integration Accuracy     IntAcc      ... 3.816
Radial Grid Type                 RadialGrid  ... OptM3 with GC (2021)
Angular Grid (max. ang.)         AngularGrid ... 1 (Lebedev-50)
Angular grid pruning method      GridPruning ... 4 (adaptive)
Weight generation scheme         WeightScheme... Becke
Basis function cutoff            BFCut       ... 1.0000e-11
Integration weight cutoff        WCut        ... 1.0000e-14
Angular grids for H and He will be reduced by one unit
Partially contracted basis set               ... on
Rotationally invariant grid construction     ... off

Total number of grid points                  ...    12202
Total number of batches                      ...      199
Average number of points per batch           ...       61
Average number of grid points per atom       ...      678
UseSFitting                                  ... on

GRIDX 2
-------
General Integration Accuracy     IntAcc      ... 4.020
Radial Grid Type                 RadialGrid  ... OptM3 with GC (2021)
Angular Grid (max. ang.)         AngularGrid ... 2 (Lebedev-110)
Angular grid pruning method      GridPruning ... 4 (adaptive)
Weight generation scheme         WeightScheme... Becke
Basis function cutoff            BFCut       ... 1.0000e-11
Integration weight cutoff        WCut        ... 1.0000e-14
Angular grids for H and He will be reduced by one unit
Partially contracted basis set               ... on
Rotationally invariant grid construction     ... off

Total number of grid points                  ...    30624
Total number of batches                      ...      489
Average number of points per batch           ...       62
Average number of grid points per atom       ...     1701
UseSFitting                                  ... on

GRIDX 3
-------
General Integration Accuracy     IntAcc      ... 4.338
Radial Grid Type                 RadialGrid  ... OptM3 with GC (2021)
Angular Grid (max. ang.)         AngularGrid ... 3 (Lebedev-194)
Angular grid pruning method      GridPruning ... 4 (adaptive)
Weight generation scheme         WeightScheme... Becke
Basis function cutoff            BFCut       ... 1.0000e-11
Integration weight cutoff        WCut        ... 1.0000e-14
Angular grids for H and He will be reduced by one unit
Partially contracted basis set               ... on
Rotationally invariant grid construction     ... off

Total number of grid points                  ...    67994
Total number of batches                      ...     1071
Average number of points per batch           ...       63
Average number of grid points per atom       ...     3777
UseSFitting                                  ... on

Time for X-Grid setup             =    1.481 sec


--------------------
CPCM SOLVATION MODEL
--------------------
CPCM parameters:
  Epsilon                                         ...      78.3550
  Refrac                                          ...       1.3328
  Rsolv                                           ...       1.3000
  Surface type                                    ... GAUSSIAN VDW
  Epsilon function type                           ...         CPCM
Solvent:                                     ... WATER
SMD-CDS solvent descriptors:
  Soln                                       ...    1.3328
  Soln25                                     ...    1.3323
  Sola                                       ...    0.0000
  Solb                                       ...    0.0000
  Solg                                       ...    0.0000
  Solc                                       ...    0.0000
  Solh                                       ...    0.0000
Radii:
 Radius for C  used is    3.4960 Bohr (=   1.8500 Ang.)
 Radius for N  used is    3.5716 Bohr (=   1.8900 Ang.)
 Radius for O  used is    2.8724 Bohr (=   1.5200 Ang.)
 Radius for F  used is    3.2692 Bohr (=   1.7300 Ang.)
 Radius for H  used is    2.2677 Bohr (=   1.2000 Ang.)
 Radius for S  used is    4.7054 Bohr (=   2.4900 Ang.)
Calculating surface                               ...        done! (  0.0s)
GEPOL surface points                              ...         1065
GEPOL Volume                                      ...    1272.3436
GEPOL Surface-area                                ...     707.9750
Calculating surface distance matrix               ...        done! (  0.0s)
Performing Cholesky decomposition & store         ...        done! (  0.1s)
Overall time for CPCM initialization              ...                 0.1s
--------------
SCF ITERATIONS
--------------
ITER       Energy         Delta-E        Max-DP      RMS-DP      [F,P]     Damp
               ***  Starting incremental Fock matrix formation  ***
                      *** Initiating the SOSCF procedure ***
                      *** Re-Reading the Fockian *** 
                      *** Removing any level shift *** 
ITER      Energy       Delta-E        Grad      Rot      Max-DP    RMS-DP
  0   -990.26799578 -990.2679957759  0.000001  0.000001  0.018881  0.000144
               *** Restarting incremental Fock matrix formation ***
                  ***Gradient check signals convergence***
              ***Rediagonalizing the Fockian in SOSCF/NRSCF***

               *****************************************************
               *                     SUCCESS                       *
               *           SCF CONVERGED AFTER   1 CYCLES          *
               *****************************************************

Old exchange energy                            =    -28.484657702 Eh
New exchange energy                            =    -28.484648284 Eh
Exchange energy change after final integration =      0.000009419 Eh
Total energy after final integration           =   -990.267986358 Eh
Final COS-X integration done in                =     4.086 sec

SMD CDS free energy correction energy :                 5.55319     Kcal/mol
Total Energy after SMD CDS correction =              -990.259136789 Eh

----------------
TOTAL SCF ENERGY
----------------

Total Energy       :         -990.25913679 Eh          -26946.32104 eV

Components:
Nuclear Repulsion  :          809.89240217 Eh           22038.29267 eV
Electronic Energy  :        -1800.15153896 Eh          -48984.61370 eV
One Electron Energy:        -2984.44748310 Eh          -81210.94470 eV
Two Electron Energy:         1184.29594414 Eh           32226.33100 eV
Max COSX asymmetry :            0.00000381 Eh               0.00010 eV
CPCM Dielectric    :           -0.10274862 Eh              -2.79593 eV
SMD CDS (Gcds)     :            0.00884957 Eh               0.24081 eV

Virial components:
Potential Energy   :        -1978.35201059 Eh          -53833.69506 eV
Kinetic Energy     :          988.09287380 Eh           26887.37402 eV
Virial Ratio       :            2.00219237


DFT components:
N(Alpha)           :       49.000001044187 electrons
N(Beta)            :       49.000001044187 electrons
N(Total)           :       98.000002088374 electrons
E(XC)              :      -73.546686949608 Eh       
DFET-embed. en.    :        0.000000000000 Eh       
CPCM Solvation Model Properties:
Surface-charge          :            0.95115654
Charge-correction       :           -0.00612376 Eh              -0.16664 eV
Free-energy (cav+disp)  :            0.00884957 Eh               0.24081 eV

---------------
SCF CONVERGENCE
---------------

  Last Energy change         ...   -4.3201e-10  Tolerance :   1.0000e-08
  Last MAX-Density change    ...    5.3291e-15  Tolerance :   1.0000e-07
  Last RMS-Density change    ...    5.0749e-17  Tolerance :   5.0000e-09
  Last Orbital Gradient      ...    1.0666e-06  Tolerance :   1.0000e-05
  Last Orbital Rotation      ...    4.3492e-06  Tolerance :   1.0000e-05

             **** THE GBW FILE WAS UPDATED (TS_search_opt_without_h.gbw) ****
             **** DENSITY TS_search_opt_without_h.scfp WAS UPDATED ****
             **** ENERGY FILE WAS UPDATED (TS_search_opt_without_h.en.tmp) ****
             **** THE GBW FILE WAS UPDATED (TS_search_opt_without_h.gbw) ****
             **** DENSITY TS_search_opt_without_h.scfp WAS UPDATED ****
----------------
ORBITAL ENERGIES
----------------

  NO   OCC          E(Eh)            E(eV) 
   0   2.0000     -88.752025     -2415.0654 
   1   2.0000     -24.749755      -673.4751 
   2   2.0000     -19.230620      -523.2918 
   3   2.0000     -19.227036      -523.1943 
   4   2.0000     -14.645553      -398.5258 
   5   2.0000     -14.395928      -391.7331 
   6   2.0000     -10.414741      -283.3995 
   7   2.0000     -10.314472      -280.6711 
   8   2.0000     -10.310641      -280.5668 
   9   2.0000     -10.293690      -280.1055 
  10   2.0000     -10.260428      -279.2004 
  11   2.0000     -10.248905      -278.8869 
  12   2.0000      -7.947901      -216.2734 
  13   2.0000      -5.910884      -160.8433 
  14   2.0000      -5.905088      -160.6856 
  15   2.0000      -5.902205      -160.6072 
  16   2.0000      -1.375563       -37.4310 
  17   2.0000      -1.357288       -36.9337 
  18   2.0000      -1.188770       -32.3481 
  19   2.0000      -1.094053       -29.7707 
  20   2.0000      -0.986059       -26.8320 
  21   2.0000      -0.921565       -25.0771 
  22   2.0000      -0.851565       -23.1723 
  23   2.0000      -0.843935       -22.9646 
  24   2.0000      -0.771427       -20.9916 
  25   2.0000      -0.743124       -20.2214 
  26   2.0000      -0.698800       -19.0153 
  27   2.0000      -0.689103       -18.7514 
  28   2.0000      -0.667504       -18.1637 
  29   2.0000      -0.662687       -18.0326 
  30   2.0000      -0.649806       -17.6821 
  31   2.0000      -0.620039       -16.8721 
  32   2.0000      -0.593597       -16.1526 
  33   2.0000      -0.592183       -16.1141 
  34   2.0000      -0.539255       -14.6739 
  35   2.0000      -0.516968       -14.0674 
  36   2.0000      -0.506851       -13.7921 
  37   2.0000      -0.501677       -13.6513 
  38   2.0000      -0.499482       -13.5916 
  39   2.0000      -0.498656       -13.5691 
  40   2.0000      -0.438688       -11.9373 
  41   2.0000      -0.427883       -11.6433 
  42   2.0000      -0.419398       -11.4124 
  43   2.0000      -0.411091       -11.1864 
  44   2.0000      -0.402954       -10.9649 
  45   2.0000      -0.387578       -10.5465 
  46   2.0000      -0.356053        -9.6887 
  47   2.0000      -0.282432        -7.6854 
  48   2.0000      -0.267780        -7.2867 
  49   0.0000      -0.022530        -0.6131 
  50   0.0000       0.051607         1.4043 
  51   0.0000       0.055351         1.5062 
  52   0.0000       0.062677         1.7055 
  53   0.0000       0.069256         1.8846 
  54   0.0000       0.076341         2.0773 
  55   0.0000       0.084734         2.3057 
  56   0.0000       0.089648         2.4394 
  57   0.0000       0.094900         2.5824 
  58   0.0000       0.103346         2.8122 
  59   0.0000       0.114374         3.1123 
  60   0.0000       0.128214         3.4889 
  61   0.0000       0.128807         3.5050 
  62   0.0000       0.133631         3.6363 
  63   0.0000       0.140699         3.8286 
  64   0.0000       0.150124         4.0851 
  65   0.0000       0.162670         4.4265 
  66   0.0000       0.165638         4.5072 
  67   0.0000       0.168915         4.5964 
  68   0.0000       0.176916         4.8141 
  69   0.0000       0.179729         4.8907 
  70   0.0000       0.185292         5.0421 
  71   0.0000       0.189480         5.1560 
  72   0.0000       0.192497         5.2381 
  73   0.0000       0.193858         5.2751 
  74   0.0000       0.200294         5.4503 
  75   0.0000       0.204305         5.5594 
  76   0.0000       0.212623         5.7858 
  77   0.0000       0.215218         5.8564 
  78   0.0000       0.219729         5.9791 
  79   0.0000       0.227889         6.2012 
  80   0.0000       0.232465         6.3257 
  81   0.0000       0.240160         6.5351 
  82   0.0000       0.248221         6.7544 
  83   0.0000       0.249241         6.7822 
  84   0.0000       0.251289         6.8379 
  85   0.0000       0.258805         7.0425 
  86   0.0000       0.265491         7.2244 
  87   0.0000       0.272871         7.4252 
  88   0.0000       0.275482         7.4962 
[...]
      7       0.001070  -0.003899  -0.118860   0.152149  -0.078988  -0.266944
      8       0.000168  -0.003739  -0.123268   0.117968  -0.024030  -0.241436
      9       0.002536   0.003035   0.137616   0.084616  -0.417271   0.062836
     10      -0.001661  -0.000048  -0.022241  -0.062422   0.065408   0.118638
     11      -0.000872   0.000903   0.027224  -0.036726  -0.089623   0.149361
     12       0.000847  -0.000498  -0.011766   0.001540   0.254881  -0.144490
     13       0.000735   0.002920   0.127866  -0.022787  -0.013428  -0.216473
     14       0.001089   0.002924   0.125909  -0.025013   0.096888  -0.284451
     15      -0.004495  -0.000329  -0.046300  -0.009063  -0.205124  -0.021397
     16       0.002426  -0.002635  -0.102874   0.089133   0.185267   0.202632
     17       0.000082  -0.001896  -0.123081   0.081764   0.074762   0.192701
     18       0.000489  -0.004852  -0.017379   0.259644  -0.015998   0.051459
     19       0.001800  -0.000680  -0.083931  -0.437930  -0.121218  -0.051067
     20       0.001952  -0.002574  -0.081898  -0.281120  -0.116084  -0.022220
     21      -0.000213   0.000664   0.010464  -0.016354  -0.001241  -0.010905
     22      -0.001345   0.002442   0.081754   0.200943   0.073611   0.002382
     23      -0.001282   0.002365   0.075649   0.168372   0.064507  -0.002338
     24       0.000688   0.003034   0.008116  -0.192301   0.019564  -0.027839
     25      -0.000452  -0.001614   0.000547   0.147208   0.003354   0.025539
     26      -0.000218  -0.000252   0.003591   0.053128   0.010239   0.011236
     27      -0.000285  -0.000350  -0.011445   0.011922  -0.013106  -0.003103
     28       0.000502   0.000211   0.001984   0.007091   0.011396  -0.006006
     29       0.000254   0.000412  -0.003191   0.016583   0.013091   0.000389
     30       0.003535  -0.010492  -0.323400   0.256381   0.051691  -0.294869
     31      -0.008576   0.011773   0.325365  -0.419879   0.184145   0.317128
     32      -0.008180   0.011246   0.261462  -0.377564   0.212245   0.263453
     33      -0.006322  -0.015526  -0.612133   0.038401   0.489949  -0.031646
     34      -0.000309   0.003489   0.127381  -0.070549  -0.117499   0.162923
     35      -0.002554  -0.001790  -0.096282  -0.051437   0.055259   0.169668
     36      -0.005053  -0.005966  -0.270814   0.005698   0.121197   0.237696
     37      -0.005930  -0.002301  -0.134708  -0.043493  -0.227503   0.202357
     38      -0.008132  -0.005634  -0.254915  -0.042126  -0.182284   0.320326
     39       0.004300  -0.022365   0.004543  -0.003747   0.001504  -0.001653
     40       0.001674  -0.057387   0.004314  -0.001620   0.001994   0.001222
     41       0.062699   0.003972  -0.002072   0.002553  -0.002076   0.001683
     42       0.431774  -0.016876  -0.016404   0.015265  -0.005853   0.013311
     43       0.215772   0.500210  -0.032793   0.018175  -0.002652  -0.004352
     44      -0.152192  -0.418555   0.028055  -0.014116   0.002435   0.006764
     45      -0.417440   0.143205  -0.030698   0.026714  -0.018728   0.012646
     46      -0.179616   0.555992  -0.029375   0.009860   0.004707  -0.013309
     47       0.028038   0.350414  -0.015202   0.002455   0.003345  -0.011987
     48      -0.095038   0.197332  -0.026773   0.021040  -0.009947   0.000421
     49      -0.050234  -0.279422   0.036915  -0.028602   0.013612  -0.006341
     50      -0.721531   0.014461   0.002602  -0.004360  -0.003441  -0.008955
     51       0.000824  -0.001918  -0.001204   0.001901  -0.001961  -0.001872
     52       0.000093  -0.002634   0.000011   0.000145  -0.000978  -0.004168
     53       0.003061   0.000183  -0.000124   0.001317   0.000849   0.003005
                 48         49         50         51         52         53    
      0       0.000351  -0.000254  -0.000144  -0.000576   0.000213   0.000122
      1       0.000608   0.000024  -0.000066  -0.001220  -0.000166  -0.000279
      2      -0.000317  -0.000107   0.000116  -0.000917   0.000209  -0.000325
      3      -0.000255   0.000107   0.000065  -0.000365   0.000163  -0.000003
      4      -0.000211  -0.000069   0.000083  -0.000623   0.000292  -0.000300
      5      -0.000395   0.000362   0.000054  -0.000804   0.000342  -0.000237
      6      -0.000106  -0.000196   0.000053   0.075758  -0.011751   0.010517
      7       0.000257  -0.000196  -0.000033   0.018719  -0.001094   0.000270
      8       0.000416  -0.000399  -0.000023   0.037110  -0.004026   0.002920
      9       0.000232  -0.000148  -0.000034  -0.003416   0.002078   0.003722
     10      -0.000058  -0.000003   0.000002  -0.008301  -0.041527   0.045040
     11      -0.000031  -0.000010  -0.000003  -0.009647  -0.041621   0.047621
     12      -0.000078   0.000061   0.000001  -0.001539  -0.051586  -0.053403
     13      -0.000069   0.000103  -0.000002   0.000987   0.034035   0.030635
     14      -0.000115   0.000177  -0.000006   0.000259   0.012115   0.007875
     15       0.000238  -0.000004  -0.000058  -0.000247   0.000185   0.000117
     16      -0.000084  -0.000084   0.000041   0.000320  -0.001665  -0.002117
     17       0.000338  -0.000255  -0.000056   0.000165  -0.001701  -0.002207
     18      -0.000385   0.000108   0.000101  -0.000140  -0.000735  -0.000732
     19      -0.000063   0.000076   0.000024  -0.000032   0.000600   0.000563
     20      -0.000151   0.000003   0.000040  -0.000047   0.000292   0.000224
     21       0.000047  -0.000006   0.000003   0.000018   0.000122   0.000168
     22       0.000067  -0.000044  -0.000030   0.000046   0.000004   0.000014
     23       0.000085  -0.000019  -0.000024   0.000061   0.000046   0.000075
     24       0.000163  -0.000040  -0.000046   0.000094   0.000010   0.000063
     25      -0.000060   0.000022   0.000020  -0.000043  -0.000455  -0.000381
     26      -0.000020   0.000014  -0.000002  -0.000005  -0.000433  -0.000326
     27      -0.000011  -0.000032   0.000043   0.000005   0.000003  -0.000003
     28      -0.000002  -0.000040  -0.000016   0.000118   0.000005   0.000019
     29       0.000078   0.000008  -0.000046   0.000132  -0.000035   0.000037
     30      -0.000833   0.003759  -0.000462  -0.856705   0.111714  -0.089719
     31      -0.000341   0.001029  -0.000130  -0.221805   0.026792  -0.020844
     32      -0.000356   0.001715  -0.000193  -0.426370   0.053452  -0.042085
     33       0.000087  -0.000069  -0.000007   0.007144   0.009609  -0.014401
     34      -0.000021  -0.000194   0.000231   0.113250   0.468096  -0.501353
     35      -0.000233   0.000157   0.000262   0.118176   0.479412  -0.514512
     36      -0.000341   0.000539  -0.000094   0.019938   0.609418   0.574513
     37       0.000153  -0.000255   0.000079  -0.012154  -0.377151  -0.351937
     38       0.000095  -0.000172   0.000007  -0.003703  -0.116960  -0.106028
     39       0.044784  -0.038697   0.015928  -0.000203   0.000060   0.000008
     40      -0.013517  -0.083835   0.004995  -0.000308   0.000064   0.000005
     41      -0.007911   0.010322   0.092712  -0.000021  -0.000015   0.000016
     42       0.037398   0.018905  -0.036368  -0.000020  -0.000041  -0.000005
     43       0.333013   0.274738  -0.434496   0.001081  -0.000087  -0.000121
     44       0.429521   0.376711  -0.539580   0.001400  -0.000121  -0.000082
     45      -0.091619  -0.102808  -0.137874  -0.000352  -0.000011  -0.000048
     46       0.269338   0.241238   0.388855   0.000609  -0.000134   0.000050
     47      -0.423652  -0.400117  -0.582031  -0.000877   0.000253  -0.000235
     48      -0.486903   0.551336  -0.013484   0.002871  -0.000849   0.000068
     49      -0.441939   0.479855  -0.014304   0.002450  -0.000573  -0.000104
     50       0.090333  -0.102507   0.022480  -0.000445   0.000164   0.000008
     51       0.000212  -0.000182  -0.000055   0.000027   0.000014  -0.000003
     52      -0.000100   0.000169  -0.000002   0.000059   0.000034  -0.000010
     53       0.000006   0.000099  -0.000189  -0.000027  -0.000022   0.000009


-----------
IR SPECTRUM
-----------

 Mode   freq       eps      Int      T**2         TX        TY        TZ
       cm**-1   L/(mol*cm) km/mol    a.u.
----------------------------------------------------------------------------
  8:     65.21   0.000167    0.84  0.000798  ( 0.027010 -0.005492  0.006186)
  9:     86.16   0.001380    6.98  0.005000  ( 0.015660  0.068614 -0.006837)
 10:    112.60   0.001106    5.59  0.003066  ( 0.004590  0.049417 -0.024554)
 11:    129.36   0.000144    0.73  0.000348  ( 0.013488 -0.012543 -0.002952)
 12:    150.67   0.001209    6.11  0.002505  (-0.013673 -0.041339  0.024679)
 13:    197.80   0.000269    1.36  0.000424  ( 0.004462 -0.008817 -0.018061)
 14:    252.94   0.000793    4.01  0.000979  ( 0.017645 -0.005923  0.025149)
 15:    298.63   0.003274   16.55  0.003422  ( 0.011049 -0.050327  0.027691)
 16:    390.71   0.000131    0.66  0.000104  (-0.001028  0.009809  0.002685)
 17:    407.81   0.015635   79.01  0.011964  (-0.026736  0.085677 -0.062518)
 18:    449.12   0.052587  265.75  0.036539  (-0.020959  0.167183 -0.090276)
 19:    464.50   0.004382   22.14  0.002944  ( 0.050224 -0.017874  0.010097)
 20:    565.88   0.003472   17.55  0.001915  ( 0.006469  0.018003  0.039354)
 21:    589.64   0.005317   26.87  0.002814  (-0.027656 -0.044360  0.009027)
 22:    674.69   0.097986  495.18  0.045321  ( 0.002387  0.187740 -0.100346)
 23:    685.02   0.034963  176.69  0.015928  (-0.005853  0.074862 -0.101434)
 24:    752.04   0.001976    9.99  0.000820  (-0.021437  0.018873 -0.002099)
 25:    762.20   0.028255  142.79  0.011568  (-0.013104 -0.075835  0.075137)
 26:    820.93   0.007549   38.15  0.002870  (-0.016579 -0.021541  0.046161)
 27:    833.43   0.005493   27.76  0.002057  (-0.011875 -0.029184  0.032622)
 28:    901.51   0.020473  103.46  0.007087  (-0.061099 -0.019023 -0.054698)
 29:    964.88   0.003723   18.81  0.001204  ( 0.000659 -0.029794  0.017772)
 30:    981.46   0.003488   17.63  0.001109  (-0.010969 -0.005434 -0.030969)
 31:   1011.88   0.000958    4.84  0.000295  ( 0.009297  0.013414 -0.005382)
 32:   1019.73   0.001033    5.22  0.000316  ( 0.011571  0.013488  0.000516)
 33:   1070.39   0.149190  753.95  0.043495  ( 0.164545 -0.081465  0.098911)
 34:   1097.63   0.042353  214.04  0.012041  ( 0.069477 -0.013686  0.083826)
 35:   1179.38   0.037857  191.31  0.010017  ( 0.097691 -0.020714 -0.006666)
 36:   1187.13   0.239027  1207.95  0.062834  (-0.213399  0.113718 -0.066050)
 37:   1268.93   0.040742  205.89  0.010020  ( 0.070609 -0.033540  0.062523)
 38:   1288.66   0.202404  1022.87  0.049015  ( 0.179542 -0.027073  0.126675)
 39:   1357.13   0.003505   17.71  0.000806  (-0.017672  0.022211  0.000496)
 40:   1393.63   0.155237  784.51  0.034761  (-0.143588 -0.012407 -0.118277)
 41:   1430.62   0.038039  192.24  0.008298  ( 0.045164  0.071794  0.033217)
 42:   1465.67   0.001868    9.44  0.000398  (-0.004298  0.006058 -0.018509)
 43:   1471.03   0.001324    6.69  0.000281  ( 0.011259  0.010956 -0.005842)
 44:   1487.92   0.020658  104.39  0.004333  ( 0.034149 -0.048383 -0.028732)
 45:   1540.09   0.162523  821.33  0.032932  ( 0.024922 -0.139064 -0.113893)
 46:   1625.78   0.084450  426.78  0.016210  ( 0.112970 -0.058495 -0.005111)
 47:   1659.07   0.110898  560.43  0.020859  (-0.016482 -0.125693 -0.069203)
 48:   3044.60   0.022238  112.38  0.002279  ( 0.039587 -0.026175 -0.005210)
 49:   3122.19   0.005546   28.03  0.000554  (-0.006955 -0.022481  0.000725)
 50:   3132.78   0.005783   29.22  0.000576  ( 0.002340  0.004302  0.023496)
 51:   3206.80   0.003693   18.66  0.000359  ( 0.013250  0.009500  0.009674)
 52:   3245.57   0.000348    1.76  0.000033  ( 0.005324 -0.000790 -0.002111)
 53:   3257.25   0.000687    3.47  0.000066  ( 0.006848 -0.003110  0.003036)

* The epsilon (eps) is given for a Dirac delta lineshape.
** The dipole moment derivative (T) already includes vibrational overlap.

The first frequency considered to be a vibration is 8
The total number of vibrations considered is 46


--------------------------
THERMOCHEMISTRY AT 298.15K
--------------------------

Temperature         ... 298.15 K
Pressure            ... 1.00 atm
Total Mass          ... 189.18 AMU

Throughout the following assumptions are being made:
  (1) The electronic state is orbitally nondegenerate
  (2) There are no thermally accessible electronically excited states
  (3) Hindered rotations indicated by low frequency modes are not
      treated as such but are treated as vibrations and this may
      cause some error
  (4) All equations used are the standard statistical mechanics
      equations for an ideal gas
  (5) All vibrations are strictly harmonic

freq.      65.21  E(vib)   ...       0.50 
freq.      86.16  E(vib)   ...       0.48 
freq.     112.60  E(vib)   ...       0.45 
freq.     129.36  E(vib)   ...       0.43 
freq.     150.67  E(vib)   ...       0.40 
freq.     197.80  E(vib)   ...       0.35 
freq.     252.94  E(vib)   ...       0.30 
freq.     298.63  E(vib)   ...       0.26 
freq.     390.71  E(vib)   ...       0.20 
freq.     407.81  E(vib)   ...       0.19 
freq.     449.12  E(vib)   ...       0.17 
freq.     464.50  E(vib)   ...       0.16 
freq.     565.88  E(vib)   ...       0.11 
freq.     589.64  E(vib)   ...       0.10 
freq.     674.69  E(vib)   ...       0.08 
freq.     685.02  E(vib)   ...       0.07 
freq.     752.04  E(vib)   ...       0.06 
freq.     762.20  E(vib)   ...       0.06 
freq.     820.93  E(vib)   ...       0.05 
freq.     833.43  E(vib)   ...       0.04 
freq.     901.51  E(vib)   ...       0.03 
freq.     964.88  E(vib)   ...       0.03 
freq.     981.46  E(vib)   ...       0.02 
freq.    1011.88  E(vib)   ...       0.02 
freq.    1019.73  E(vib)   ...       0.02 
freq.    1070.39  E(vib)   ...       0.02 
freq.    1097.63  E(vib)   ...       0.02 
freq.    1179.38  E(vib)   ...       0.01 
freq.    1187.13  E(vib)   ...       0.01 
freq.    1268.93  E(vib)   ...       0.01 
freq.    1288.66  E(vib)   ...       0.01 
freq.    1357.13  E(vib)   ...       0.01 
freq.    1393.63  E(vib)   ...       0.00 
freq.    1430.62  E(vib)   ...       0.00 
freq.    1465.67  E(vib)   ...       0.00 
freq.    1471.03  E(vib)   ...       0.00 
freq.    1487.92  E(vib)   ...       0.00 
freq.    1540.09  E(vib)   ...       0.00 
freq.    1625.78  E(vib)   ...       0.00 
freq.    1659.07  E(vib)   ...       0.00 
freq.    3044.60  E(vib)   ...       0.00 
freq.    3122.19  E(vib)   ...       0.00 
freq.    3132.78  E(vib)   ...       0.00 
freq.    3206.80  E(vib)   ...       0.00 
freq.    3245.57  E(vib)   ...       0.00 
freq.    3257.25  E(vib)   ...       0.00 

------------
INNER ENERGY
------------

The inner energy is: U= E(el) + E(ZPE) + E(vib) + E(rot) + E(trans)
    E(el)   - is the total energy from the electronic structure calculation
              = E(kin-el) + E(nuc-el) + E(el-el) + E(nuc-nuc)
    E(ZPE)  - the the zero temperature vibrational energy from the frequency calculation
    E(vib)  - the the finite temperature correction to E(ZPE) due to population
              of excited vibrational states
    E(rot)  - is the rotational thermal energy
    E(trans)- is the translational thermal energy

Summary of contributions to the inner energy U:
Electronic energy                ...   -990.26684624 Eh
Zero point energy                ...      0.12097309 Eh      75.91 kcal/mol
Thermal vibrational correction   ...      0.00748330 Eh       4.70 kcal/mol
Thermal rotational correction    ...      0.00141627 Eh       0.89 kcal/mol
Thermal translational correction ...      0.00141627 Eh       0.89 kcal/mol
-----------------------------------------------------------------------
Total thermal energy                   -990.13555731 Eh


Summary of corrections to the electronic energy:
(perhaps to be used in another calculation)
Total thermal correction                  0.01031584 Eh       6.47 kcal/mol
Non-thermal (ZPE) correction              0.12097309 Eh      75.91 kcal/mol
-----------------------------------------------------------------------
Total correction                          0.13128893 Eh      82.38 kcal/mol


--------
ENTHALPY
--------

The enthalpy is H = U + kB*T
                kB is Boltzmann's constant
Total free energy                 ...   -990.13555731 Eh 
Thermal Enthalpy correction       ...      0.00094421 Eh       0.59 kcal/mol
-----------------------------------------------------------------------
Total Enthalpy                    ...   -990.13461310 Eh


Note: Only C1 symmetry has been detected, increase convergence thresholds 
      if your molecule has a higher symmetry. Symmetry factor of 1.0 is   
      used for the rotational entropy correction. 
 

Note: Rotational entropy computed according to Herzberg 
Infrared and Raman Spectra, Chapter V,1, Van Nostrand Reinhold, 1945 
Point Group:  C1, Symmetry Number:   1  
Rotational constants in cm-1:     0.035049     0.025502     0.019181 

Vibrational entropy computed according to the QRRHO of S. Grimme
Chem.Eur.J. 2012 18 9955


-------
ENTROPY
-------

The entropy contributions are T*S = T*(S(el)+S(vib)+S(rot)+S(trans))
     S(el)   - electronic entropy
     S(vib)  - vibrational entropy
     S(rot)  - rotational entropy
     S(trans)- translational entropy
The entropies will be listed as multiplied by the temperature to get
units of energy

Electronic entropy                ...      0.00000000 Eh      0.00 kcal/mol
Vibrational entropy               ...      0.01304216 Eh      8.18 kcal/mol
Rotational entropy                ...      0.01469147 Eh      9.22 kcal/mol
Translational entropy             ...      0.01977419 Eh     12.41 kcal/mol
-----------------------------------------------------------------------
Final entropy term                ...      0.04750782 Eh     29.81 kcal/mol

In case the symmetry of your molecule has not been determined correctly
or in case you have a reason to use a different symmetry number we print 
out the resulting rotational entropy values for sn=1,12 :
 --------------------------------------------------------
|  sn= 1 | S(rot)=       0.01469147 Eh      9.22 kcal/mol|
|  sn= 2 | S(rot)=       0.01403702 Eh      8.81 kcal/mol|
|  sn= 3 | S(rot)=       0.01365418 Eh      8.57 kcal/mol|
|  sn= 4 | S(rot)=       0.01338256 Eh      8.40 kcal/mol|
|  sn= 5 | S(rot)=       0.01317187 Eh      8.27 kcal/mol|
|  sn= 6 | S(rot)=       0.01299973 Eh      8.16 kcal/mol|
|  sn= 7 | S(rot)=       0.01285418 Eh      8.07 kcal/mol|
|  sn= 8 | S(rot)=       0.01272810 Eh      7.99 kcal/mol|
|  sn= 9 | S(rot)=       0.01261690 Eh      7.92 kcal/mol|
|  sn=10 | S(rot)=       0.01251742 Eh      7.85 kcal/mol|
|  sn=11 | S(rot)=       0.01242743 Eh      7.80 kcal/mol|
|  sn=12 | S(rot)=       0.01234527 Eh      7.75 kcal/mol|
 --------------------------------------------------------


-------------------
GIBBS FREE ENERGY
-------------------

The Gibbs free energy is G = H - T*S

Total enthalpy                    ...   -990.13461310 Eh 
Total entropy correction          ...     -0.04750782 Eh    -29.81 kcal/mol
-----------------------------------------------------------------------
Final Gibbs free energy         ...   -990.18212092 Eh

For completeness - the Gibbs free energy minus the electronic energy
G-E(el)                           ...      0.08472532 Eh     53.17 kcal/mol



Timings for individual modules:

Sum of individual times         ...    60341.156 sec (=1005.686 min)
GTO integral calculation        ...       64.523 sec (=   1.075 min)   0.1 %
SCF iterations                  ...     1232.183 sec (=  20.536 min)   2.0 %
SCF Gradient evaluation         ...      271.967 sec (=   4.533 min)   0.5 %
Geometry relaxation             ...        1.701 sec (=   0.028 min)   0.0 %
Numerical frequency calculation ...     2405.094 sec (=  40.085 min)   4.0 %
NEB Iterations                  ...    56365.688 sec (= 939.428 min)  93.4 %
                             ****ORCA TERMINATED NORMALLY****
TOTAL RUN TIME: 0 days 16 hours 45 minutes 8 seconds 943 msec
