
                                 *****************
                                 * O   R   C   A *
                                 *****************

                                            #,                                       
                                            ###                                      
                                            ####                                     
                                            #####                                    
                                            ######                                   
                                           ########,                                 
                                     ,,################,,,,,                         
                               ,,#################################,,                 
                          ,,##########################################,,             
                       ,#########################################, ''#####,          
                    ,#############################################,,   '####,        
                  ,##################################################,,,,####,       
                ,###########''''           ''''###############################       
              ,#####''   ,,,,##########,,,,          '''####'''          '####       
            ,##' ,,,,###########################,,,                        '##       
           ' ,,###''''                  '''############,,,                           
         ,,##''                                '''############,,,,        ,,,,,,###''
      ,#''                                            '''#######################'''  
     '                                                          ''''####''''         
             ,#######,   #######,   ,#######,      ##                                
            ,#'     '#,  ##    ##  ,#'     '#,    #''#        ######   ,####,        
            ##       ##  ##   ,#'  ##            #'  '#       #        #'  '#        
            ##       ##  #######   ##           ,######,      #####,   #    #        
            '#,     ,#'  ##    ##  '#,     ,#' ,#      #,         ##   #,  ,#        
             '#######'   ##     ##  '#######'  #'      '#     #####' # '####'        



                  #######################################################
                  #                        -***-                        #
                  #          Department of theory and spectroscopy      #
                  #    Directorship and core code : Frank Neese         #
                  #        Max Planck Institute fuer Kohlenforschung    #
                  #                Kaiser Wilhelm Platz 1               #
                  #                 D-45470 Muelheim/Ruhr               #
                  #                      Germany                        #
                  #                                                     #
                  #                  All rights reserved                #
                  #                        -***-                        #
                  #######################################################


                         Program Version 5.0.4 -  RELEASE  -


 With contributions from (in alphabetic order):
   Daniel Aravena         : Magnetic Suceptibility
   Michael Atanasov       : Ab Initio Ligand Field Theory (pilot matlab implementation)
   Alexander A. Auer      : GIAO ZORA, VPT2 properties, NMR spectrum
   Ute Becker             : Parallelization
   Giovanni Bistoni       : ED, misc. LED, open-shell LED, HFLD
   Martin Brehm           : Molecular dynamics
   Dmytro Bykov           : SCF Hessian
   Vijay G. Chilkuri      : MRCI spin determinant printing, contributions to CSF-ICE
   Dipayan Datta          : RHF DLPNO-CCSD density
   Achintya Kumar Dutta   : EOM-CC, STEOM-CC
   Dmitry Ganyushin       : Spin-Orbit,Spin-Spin,Magnetic field MRCI
   Miquel Garcia          : C-PCM and meta-GGA Hessian, CC/C-PCM, Gaussian charge scheme
   Yang Guo               : DLPNO-NEVPT2, F12-NEVPT2, CIM, IAO-localization
   Andreas Hansen         : Spin unrestricted coupled pair/coupled cluster methods
   Benjamin Helmich-Paris : MC-RPA, TRAH-SCF, COSX integrals
   Lee Huntington         : MR-EOM, pCC
   Robert Izsak           : Overlap fitted RIJCOSX, COSX-SCS-MP3, EOM
   Marcus Kettner         : VPT2
   Christian Kollmar      : KDIIS, OOCD, Brueckner-CCSD(T), CCSD density, CASPT2, CASPT2-K
   Simone Kossmann        : Meta GGA functionals, TD-DFT gradient, OOMP2, MP2 Hessian
   Martin Krupicka        : Initial AUTO-CI
   Lucas Lang             : DCDCAS
   Marvin Lechner         : AUTO-CI (C++ implementation), FIC-MRCC
   Dagmar Lenk            : GEPOL surface, SMD
   Dimitrios Liakos       : Extrapolation schemes; Compound Job, initial MDCI parallelization
   Dimitrios Manganas     : Further ROCIS development; embedding schemes
   Dimitrios Pantazis     : SARC Basis sets
   Anastasios Papadopoulos: AUTO-CI, single reference methods and gradients
   Taras Petrenko         : DFT Hessian,TD-DFT gradient, ASA, ECA, R-Raman, ABS, FL, XAS/XES, NRVS
   Peter Pinski           : DLPNO-MP2, DLPNO-MP2 Gradient
   Christoph Reimann      : Effective Core Potentials
   Marius Retegan         : Local ZFS, SOC
   Christoph Riplinger    : Optimizer, TS searches, QM/MM, DLPNO-CCSD(T), (RO)-DLPNO pert. Triples
   Tobias Risthaus        : Range-separated hybrids, TD-DFT gradient, RPA, STAB
   Michael Roemelt        : Original ROCIS implementation
   Masaaki Saitow         : Open-shell DLPNO-CCSD energy and density
   Barbara Sandhoefer     : DKH picture change effects
   Avijit Sen             : IP-ROCIS
   Kantharuban Sivalingam : CASSCF convergence, NEVPT2, FIC-MRCI
   Bernardo de Souza      : ESD, SOC TD-DFT
   Georgi Stoychev        : AutoAux, RI-MP2 NMR, DLPNO-MP2 response
   Willem Van den Heuvel  : Paramagnetic NMR
   Boris Wezisla          : Elementary symmetry handling
   Frank Wennmohs         : Technical directorship


 We gratefully acknowledge several colleagues who have allowed us to
 interface, adapt or use parts of their codes:
   Stefan Grimme, W. Hujo, H. Kruse, P. Pracht,  : VdW corrections, initial TS optimization,
                  C. Bannwarth, S. Ehlert          DFT functionals, gCP, sTDA/sTD-DF
   Ed Valeev, F. Pavosevic, A. Kumar             : LibInt (2-el integral package), F12 methods
   Garnet Chan, S. Sharma, J. Yang, R. Olivares  : DMRG
   Ulf Ekstrom                                   : XCFun DFT Library
   Mihaly Kallay                                 : mrcc  (arbitrary order and MRCC methods)
   Jiri Pittner, Ondrej Demel                    : Mk-CCSD
   Frank Weinhold                                : gennbo (NPA and NBO analysis)
   Christopher J. Cramer and Donald G. Truhlar   : smd solvation model
   Lars Goerigk                                  : TD-DFT with DH, B97 family of functionals
   V. Asgeirsson, H. Jonsson                     : NEB implementation
   FAccTs GmbH                                   : IRC, NEB, NEB-TS, DLPNO-Multilevel, CI-OPT
                                                   MM, QMMM, 2- and 3-layer-ONIOM, Crystal-QMMM,
                                                   LR-CPCM, SF, NACMEs, symmetry and pop. for TD-DFT,
                                                   nearIR, NL-DFT gradient (VV10), updates on ESD,
                                                   ML-optimized integration grids
   S Lehtola, MJT Oliveira, MAL Marques          : LibXC Library
   Liviu Ungur et al                             : ANISO software


 Your calculation uses the libint2 library for the computation of 2-el integrals
 For citations please refer to: http://libint.valeyev.net

 Your ORCA version has been built with support for libXC version: 5.1.0
 For citations please refer to: https://tddft.org/programs/libxc/

 This ORCA versions uses:
   CBLAS   interface :  Fast vector & matrix operations
   LAPACKE interface :  Fast linear algebra routines
   SCALAPACK package :  Parallel linear algebra routines
   Shared memory     :  Shared parallel matrices
   BLAS/LAPACK       :  OpenBLAS 0.3.15  USE64BITINT DYNAMIC_ARCH NO_AFFINITY SkylakeX SINGLE_THREADED
        Core in use  :  SkylakeX
   Copyright (c) 2011-2014, The OpenBLAS Project




***************************************
The coordinates will be read from file: reactants.xyz
***************************************


Your calculation utilizes the SMD solvation module
Please cite in your paper:
A.V. Marenich, C.J. Cramer, D.G. Truhlar J. Phys. Chem. B, 113, (2009), 6378 

XCFun DFT library Copyright 2009-2010 Ulf Ekstrom and contributors.
See http://admol.org/xcfun for more information.
This is free software; see the source code for copying conditions.
There is ABSOLUTELY NO WARRANTY; not even for MERCHANTABILITY or FITNESS FOR A PARTICULAR PURPOSE.
For details see the documentation.
Scientific users of this library should cite U. Ekstrom, L. Visscher, R. Bast, A. J. Thorvaldsen and K. Ruud;
J.Chem.Theor.Comp. 2010, DOI: 10.1021/ct100117s
XCFun Version 0.99 

================================================================================

----- Orbital basis set information -----
Your calculation utilizes the basis: 6-311++G**
   H, Li - Ne  : R. Krishnan, J. S. Binkley, R. Seeger and J. A. Pople, J. Chem. Phys. 72, 650 (1980).
   Na - Ar     : A. D. McLean and G. S. Chandler J. Chem. Phys. 72, 5639, (1980).
   K  - Ca     : J.-P. Blaudeau, M. P. McGrath, L. A. Curtiss and L. Radom, J. Chem. Phys. 107, 5016 (1997).
   Ga - Kr     : L. A. Curtiss, M. P. McGrath, J.-P. Blandeau, N. E. Davis, R. C. Binning and L. Radom, J. Chem. Phys. 103, 6104 (1995).
   Pol./Diff.
   H, Li - Cl  : T. Clark, J. Chandrasekhar and P. v. R. Schleyer, J. Comp. Chem. 4, 294 (1983).
   H - Ne      : M. J. Frisch, J. A. Pople and J. S. Binkley, J. Chem. Phys. 80, 3265 (1984).

----- AuxJ basis set information -----
Your calculation utilizes the auxiliary basis: def2/J
   F. Weigend, Phys. Chem. Chem. Phys. 8, 1057 (2006).

================================================================================
                                        WARNINGS
                       Please study these warnings very carefully!
================================================================================


WARNING: Geometry Optimization
  ===> : Switching off AutoStart
         For restart on a previous wavefunction, please use MOREAD

INFO   : the flag for use of the SHARK integral package has been found!

================================================================================
                                       INPUT FILE
================================================================================
NAME = structure_opt.inp
|  1> !wb97x 6-311++G** OPT CPCM(WATER)
|  2> %maxcore  3500
|  3> %pal
|  4> nprocs 24
|  5> end
|  6> %cpcm
|  7> smd true
|  8> SMDsolvent "water"
|  9> end
| 10> %geom
| 11> ConstrainFragments {1} end
| 12> ConstrainFragments {4} end
| 13> ConnectFragments
| 14> { 1 2 C 5 7 }
| 15> { 1 2 C 0 9 }
| 16> { 2 3 C 13 5 }
| 17> { 3 4 C 13 17 }
| 18> end
| 19> end
| 20> * XYZfile -1 1 reactants.xyz
| 21> %geom
| 22> Fragments
| 23> 1 {0:5} end
| 24> 2 {6:12} end
| 25> 3 {13:16} end
| 26> 4 {17} end
| 27> end
| 28> end
| 29> 
| 30>                          ****END OF INPUT****
================================================================================

                       *****************************
                       * Geometry Optimization Run *
                       *****************************

Geometry optimization settings:
Update method            Update   .... BFGS
Choice of coordinates    CoordSys .... Z-matrix Internals
Initial Hessian          InHess   .... Almoef's Model

Convergence Tolerances:
Energy Change            TolE     ....  5.0000e-06 Eh
Max. Gradient            TolMAXG  ....  3.0000e-04 Eh/bohr
RMS Gradient             TolRMSG  ....  1.0000e-04 Eh/bohr
Max. Displacement        TolMAXD  ....  4.0000e-03 bohr
RMS Displacement         TolRMSD  ....  2.0000e-03 bohr
Strict Convergence                ....  False
------------------------------------------------------------------------------
                        ORCA OPTIMIZATION COORDINATE SETUP
------------------------------------------------------------------------------

The optimization will be done in new redundant internal coordinates
Making redundant internal coordinates   ...  (new redundants) done
Evaluating the initial hessian          ...  (Almloef) done
Evaluating the coordinates              ...  done
Calculating the B-matrix                .... done
Calculating the G-matrix                .... done
Diagonalizing the G-matrix              .... done
Imposing constraints:
 Iter   0:  RMS(Cart)=    0.0000000000 RMS(Int)=    0.0000000000
CONVERGED
Small eigenvalue found = 1.096e-02
Small eigenvalue found = 2.554e-02
The first mode is                       ....   68
The number of degrees of freedom        ....   48
Storing new coordinates                 .... done

    -----------------------------------------------------------------
                    Redundant Internal Coordinates


    -----------------------------------------------------------------
         Definition                    Initial Value    Approx d2E/dq
    -----------------------------------------------------------------
      1. B(N   1,C   0)                  1.3611         0.622347   
      2. B(C   2,N   1)                  1.3582         0.628875   
      3. B(C   3,C   2)                  1.3949         0.613658   
      4. B(C   4,C   3)                  1.3934         0.616971   
      5. B(C   5,C   0)                  1.4122         0.575774   
      6. B(C   5,C   4)                  1.4061         0.588917   
      7. B(O   7,C   5)                  2.3435         0.016853 C 
      8. B(O   7,N   6)                  1.2480         0.844503   
      9. B(O   8,N   6)                  1.3769         0.525866   
     10. B(F   9,C   0)                  1.3500         0.602260 C 
     11. B(F   9,N   6)                  2.8678         0.002044   
     12. B(F   9,O   7)                  2.5821         0.005837   
     13. B(H  11,H  10)                  2.4818         0.000415   
     14. B(H  12,O   8)                  2.5152         0.001717   
     15. B(H  12,H  11)                  2.4663         0.000439   
     16. B(H  12,N   6)                  2.7029         0.000861   
     17. B(C  13,F   9)                  8.8153         0.000000 C 
     18. B(H  14,C  13)                  1.0939         0.354994   
     19. B(H  15,C  13)                  1.0932         0.355868   
     20. B(H  16,C  13)                  1.0935         0.355548   
     21. B(S  17,C  13)                  1.8032         0.369230 C 
     22. A(N   1,C   0,F   9)          118.6704         0.424592 C 
     23. A(C   5,C   0,F   9)          121.1725         0.421471 C 
     24. A(N   1,C   0,C   5)          120.1571         0.425830   
     25. A(C   0,N   1,C   2)          121.9524         0.429796   
     26. A(N   1,C   2,C   3)          120.0262         0.431531   
     27. A(C   2,C   3,C   4)          119.3498         0.432882   
     28. A(C   3,C   4,C   5)          120.4718         0.429694   
     29. A(C   0,C   5,C   4)          118.0425         0.424407   
     30. A(C   0,C   5,O   7)           94.5313         0.237820 C 
     31. A(C   4,C   5,O   7)          147.4261         0.238582 C 
     32. A(F   9,N   6,H  12)          110.0144         0.106848   
     33. A(O   7,N   6,F   9)           64.2090         0.186619   
     34. A(O   7,N   6,H  12)          174.2234         0.159181   
     35. A(O   8,N   6,H  12)           67.2752         0.152046   
     36. A(O   7,N   6,O   8)          118.5014         0.433822   
     37. A(N   6,O   7,F   9)           89.9947         0.212791   
     38. A(C   5,O   7,N   6)           31.7456         0.248611 C 
     39. A(C   5,O   7,F   9)           58.2491         0.140475 C 
     40. A(N   6,O   8,H  12)           82.3972         0.162696   
     41. A(C   0,F   9,C  13)           93.0563         0.089667   
     42. A(N   6,F   9,O   7)           25.7962         0.120482   
     43. A(O   7,F   9,C  13)           98.7275         0.089232 C 
     44. A(C   0,F   9,O   7)           86.0471         0.203997 C 
     45. A(C   0,F   9,N   6)           60.2509         0.179684 C 
     46. A(N   6,F   9,C  13)           98.9318         0.089183 C 
     47. A(H  10,H  11,H  12)          119.7063         0.095112   
     48. A(N   6,H  12,O   8)           30.3275         0.103999   
     49. A(N   6,H  12,H  11)          126.7169         0.097913   
     50. A(O   8,H  12,H  11)          157.0445         0.099419   
     51. A(H  14,C  13,H  16)          108.8896         0.289610   
     52. A(H  15,C  13,H  16)          109.0743         0.289721   
     53. A(F   9,C  13,H  14)          109.3017         0.089519 C 
     54. A(H  16,C  13,S  17)          109.8939         0.339451 C 
     55. A(F   9,C  13,H  15)          107.7140         0.089520 C 
     56. A(F   9,C  13,H  16)          112.8022         0.089519 C 
     57. A(H  14,C  13,S  17)          109.9720         0.339362 C 
     58. A(H  15,C  13,S  17)          109.9915         0.339502 C 
     59. A(H  14,C  13,H  15)          108.9931         0.289650   
     60. D(C   2,N   1,C   0,C   5)     -0.1041         0.028432   
     61. D(C   2,N   1,C   0,F   9)    179.9112         0.028432 C 
     62. D(C   3,C   2,N   1,C   0)      0.1066         0.025783   
     63. D(C   4,C   3,C   2,N   1)     -0.0956         0.020965   
     64. D(C   5,C   4,C   3,C   2)      0.0854         0.021202   
     65. D(C   4,C   5,C   0,N   1)      0.0896         0.022761   
     66. D(C   4,C   5,C   0,F   9)   -179.9260         0.022761 C 
     67. D(O   7,C   5,C   0,N   1)    179.9933         0.022761 C 
     68. D(O   7,C   5,C   0,F   9)     -0.0223         0.022761 C 
     69. D(C   0,C   5,C   4,C   3)     -0.0818         0.021656   
     70. D(O   7,C   5,C   4,C   3)   -179.9036         0.021656 C 
     71. D(N   6,O   7,C   5,C   0)   -179.9521         0.001517 C 
     72. D(N   6,O   7,C   5,C   4)     -0.1099         0.001517 C 
     73. D(F   9,O   7,C   5,C   0)      0.0117         0.001517 C 
     74. D(F   9,O   7,N   6,O   8)    179.9932         0.079747   
     75. D(C   5,O   7,N   6,F   9)      0.0308         0.079747 C 
     76. D(F   9,O   7,N   6,H  12)      0.1568         0.079747   
     77. D(C   5,O   7,N   6,O   8)   -179.9761         0.079747 C 
     78. D(C   5,O   7,N   6,H  12)      0.1876         0.079747 C 
     79. D(F   9,O   7,C   5,C   4)    179.8539         0.001517 C 
     80. D(H  12,O   8,N   6,O   7)   -179.9821         0.025649   
     81. D(C  13,F   9,N   6,O   7)     91.5928         0.001500 C 
     82. D(N   6,F   9,C   0,C   5)      0.0236         0.035386 C 
     83. D(O   7,F   9,C   0,N   1)   -179.9952         0.035386 C 
     84. D(O   7,F   9,C   0,C   5)      0.0202         0.035386 C 
     85. D(C  13,F   9,C   0,N   1)    -81.4480         0.035386   
     86. D(C  13,F   9,C   0,C   5)     98.5674         0.035386   
     87. D(O   7,F   9,N   6,H  12)   -179.9832         0.001500   
     88. D(C   0,F   9,N   6,O   7)   -179.9922         0.001500 C 
     89. D(N   6,F   9,C   0,N   1)   -179.9918         0.035386 C 
     90. D(C   0,F   9,N   6,H  12)      0.0246         0.001500 C 
     91. D(C  13,F   9,N   6,H  12)    -88.3904         0.001500 C 
     92. D(C   0,F   9,O   8,H  12)      0.0232         0.001500 C 
     93. D(C   0,F   9,O   7,N   6)      0.0068         0.001503 C 
     94. D(C   0,F   9,O   7,C   5)     -0.0123         0.001503 C 
     95. D(C  13,F   9,O   7,N   6)    -92.4842         0.001503 C 
     96. D(C  13,F   9,O   7,C   5)    -92.5032         0.001503   
     97. D(N   6,F   9,O   7,C   5)     -0.0190         0.001503 C 
     98. D(O   7,F   9,O   8,H  12)   -179.9897         0.001500   
     99. D(C  13,F   9,O   8,H  12)    -88.2551         0.001500 C 
    100. D(O   8,H  12,N   6,O   7)    179.8441         0.001501   
    101. D(N   6,H  12,H  11,H  10)      0.0466         0.001502   
    102. D(H  11,H  12,N   6,O   7)     -0.1748         0.001501   
    103. D(H  11,H  12,N   6,O   8)    179.9811         0.001501   
    104. D(H  11,H  12,N   6,F   9)     -0.0245         0.001501   
    105. D(O   8,H  12,N   6,F   9)    179.9943         0.001501   
    106. D(H  11,H  12,O   8,N   6)     -0.0388         0.001502   
    107. D(O   8,H  12,H  11,H  10)      0.0710         0.001502   
    108. D(H  14,C  13,F   9,N   6)    137.0490         0.001500 C 
    109. D(H  14,C  13,F   9,O   7)    163.1593         0.001500 C 
    110. D(H  14,C  13,F   9,C   0)     76.6936         0.001500   
    111. D(H  15,C  13,F   9,N   6)     18.7634         0.001500 C 
    112. D(H  15,C  13,F   9,O   7)     44.8737         0.001500 C 
    113. D(H  15,C  13,F   9,C   0)    -41.5920         0.001500   
    114. D(H  16,C  13,F   9,N   6)   -101.6626         0.001500 C 
    115. D(H  16,C  13,F   9,O   7)    -75.5523         0.001500 C 
    116. D(H  16,C  13,F   9,C   0)   -162.0180         0.001500   
    -----------------------------------------------------------------

Number of atoms                         .... 18
Number of degrees of freedom            .... 116

         *************************************************************
         *                GEOMETRY OPTIMIZATION CYCLE   1            *
         *************************************************************
---------------------------------
CARTESIAN COORDINATES (ANGSTROEM)
---------------------------------
  C      0.000000    0.000000    1.820000
  N      1.178000   -0.196000    2.473000
  C      1.255000   -0.207000    3.829000
  C      0.105000   -0.016000    4.595000
  C     -1.116000    0.187000    3.955000
  C     -1.192000    0.198000    2.551000
  N     -2.456000    0.409000    1.893000
  O     -2.541000    0.423000    0.648000
  O     -3.602000    0.600000    2.632000
  F      0.000000    0.000000    0.470000
  H      2.209000   -0.366000    4.313000
  H      0.163000   -0.026000    5.676000
  H     -2.005000    0.335000    4.557000
  C      2.720000    8.372000    0.000000
  H      3.791000    8.417000    0.218000
  H      2.178000    8.941000    0.760000
  H      2.539000    8.822000   -0.980000
  S      2.163000    6.657000    0.000000

----------------------------
CARTESIAN COORDINATES (A.U.)
----------------------------
  NO LB      ZA    FRAG     MASS         X           Y           Z
   0 C     6.0000    1    12.011    0.000000    0.000000    3.439302
   1 N     7.0000    1    14.007    2.226097   -0.370386    4.673293
   2 C     6.0000    1    12.011    2.371606   -0.391173    7.235761
   3 C     6.0000    1    12.011    0.198421   -0.030236    8.683292
   4 C     6.0000    1    12.011   -2.108934    0.353379    7.473867
   5 C     6.0000    1    12.011   -2.252554    0.374166    4.820691
   6 N     7.0000    2    14.007   -4.641167    0.772898    3.577252
   7 O     8.0000    2    15.999   -4.801794    0.799354    1.224543
   8 O     8.0000    2    15.999   -6.806794    1.133836    4.973759
   9 F     9.0000    2    18.998    0.000000    0.000000    0.888171
  10 H     1.0000    2     1.008    4.174405   -0.691640    8.150389
  11 H     1.0000    2     1.008    0.308025   -0.049133   10.726086
  12 H     1.0000    2     1.008   -3.788901    0.633058    8.611482
  13 C     6.0000    3    12.011    5.140055   15.820787    0.000000
  14 H     1.0000    3     1.008    7.163952   15.905825    0.411960
  15 H     1.0000    3     1.008    4.115824   16.896041    1.436192
  16 H     1.0000    3     1.008    4.798015   16.671164   -1.851932
  17 S    16.0000    4    32.060    4.087478   12.579907    0.000000

----------------------------------------------
CARTESIAN COORDINATES OF FRAGMENTS (ANGSTROEM)
----------------------------------------------

 FRAGMENT 1 
  C     0.000000    0.000000    1.820000
  N     1.178000   -0.196000    2.473000
  C     1.255000   -0.207000    3.829000
  C     0.105000   -0.016000    4.595000
  C    -1.116000    0.187000    3.955000
  C    -1.192000    0.198000    2.551000

 FRAGMENT 2 
  N    -2.456000    0.409000    1.893000
  O    -2.541000    0.423000    0.648000
  O    -3.602000    0.600000    2.632000
  F     0.000000    0.000000    0.470000
  H     2.209000   -0.366000    4.313000
  H     0.163000   -0.026000    5.676000
  H    -2.005000    0.335000    4.557000

 FRAGMENT 3 
  C     2.720000    8.372000    0.000000
  H     3.791000    8.417000    0.218000
  H     2.178000    8.941000    0.760000
  H     2.539000    8.822000   -0.980000

 FRAGMENT 4 
  S     2.163000    6.657000    0.000000

--------------------------------
INTERNAL COORDINATES (ANGSTROEM)
--------------------------------
 C      0   0   0     0.000000000000     0.00000000     0.00000000
 N      1   0   0     1.361069065110     0.00000000     0.00000000
 C      2   1   0     1.358228993948   121.95243626     0.00000000
 C      3   2   1     1.394896770374   120.02620694     0.10655554
 C      4   3   2     1.393431017309   119.34983770   359.90435571
 C      5   4   3     1.406098502951   120.47178172     0.08537773
 N      6   5   4     1.440548853736   120.30882193   180.03842131
 O      7   6   5     1.247976762604   121.13704526   179.93147861
 O      7   6   5     1.376923382037   120.36156660   359.90709941
 F      1   2   3     1.350000000000   118.67037638   179.91115691
 H      3   2   1     1.081504969938   119.86701156   179.98746005
 H      4   3   2     1.082601034546   120.19197482   179.89186186
 H      5   4   3     1.083803026384   118.91636700   180.02085854
 C     10   1   2     8.815309637216    93.05625010   278.55204356
 H     14  10   1     1.093887562778   109.30166035    76.69360599
 H     14  10   1     1.093217727628   107.71401330   318.40800104
 H     14  10   1     1.093462848020   112.80215679   197.98197453
 S     14  10   1     1.803184405434     3.05625552   179.89194742

---------------------------
INTERNAL COORDINATES (A.U.)
---------------------------
 C      0   0   0     0.000000000000     0.00000000     0.00000000
 N      1   0   0     2.572047782411     0.00000000     0.00000000
 C      2   1   0     2.566680825712   121.95243626     0.00000000
 C      3   2   1     2.635972881098   120.02620694     0.10655554
 C      4   3   2     2.633203009226   119.34983770   359.90435571
 C      5   4   3     2.657141087893   120.47178172     0.08537773
 N      6   5   4     2.722242816095   120.30882193   180.03842131
 O      7   6   5     2.358334302820   121.13704526   179.93147861
 O      7   6   5     2.602008099442   120.36156660   359.90709941
 F      1   2   3     2.551130280794   118.67037638   179.91115691
 H      3   2   1     2.043748205657   119.86701156   179.98746005
 H      4   3   2     2.045819467592   120.19197482   179.89186186
 H      5   4   3     2.048090902982   118.91636700   180.02085854
 C     10   1   2    16.658521000056    93.05625010   278.55204356
 H     14  10   1     2.067147914953   109.30166035    76.69360599
 H     14  10   1     2.065882109965   107.71401330   318.40800104
 H     14  10   1     2.066345320375   112.80215679   197.98197453
 S     14  10   1     3.407524695228     3.05625552   179.89194742

---------------------
BASIS SET INFORMATION
---------------------
There are 6 groups of distinct atoms

 Group   1 Type C   : 12s6p1d contracted to 5s4p1d pattern {63111/3111/1}
 Group   2 Type N   : 12s6p1d contracted to 5s4p1d pattern {63111/3111/1}
 Group   3 Type O   : 12s6p1d contracted to 5s4p1d pattern {63111/3111/1}
 Group   4 Type F   : 12s6p1d contracted to 5s4p1d pattern {63111/3111/1}
 Group   5 Type H   : 6s1p contracted to 4s1p pattern {3111/1}
 Group   6 Type S   : 14s10p1d contracted to 7s6p1d pattern {6311111/421111/1}

Atom   0C    basis set group =>   1
Atom   1N    basis set group =>   2
Atom   2C    basis set group =>   1
Atom   3C    basis set group =>   1
Atom   4C    basis set group =>   1
Atom   5C    basis set group =>   1
Atom   6N    basis set group =>   2
Atom   7O    basis set group =>   3
Atom   8O    basis set group =>   3
Atom   9F    basis set group =>   4
Atom  10H    basis set group =>   5
Atom  11H    basis set group =>   5
Atom  12H    basis set group =>   5
Atom  13C    basis set group =>   1
Atom  14H    basis set group =>   5
Atom  15H    basis set group =>   5
Atom  16H    basis set group =>   5
Atom  17S    basis set group =>   6
---------------------------------
AUXILIARY/J BASIS SET INFORMATION
---------------------------------
There are 6 groups of distinct atoms

 Group   1 Type C   : 12s5p4d2f1g contracted to 6s4p3d1f1g pattern {711111/2111/211/2/1}
 Group   2 Type N   : 12s5p4d2f1g contracted to 6s4p3d1f1g pattern {711111/2111/211/2/1}
 Group   3 Type O   : 12s5p4d2f1g contracted to 6s4p3d1f1g pattern {711111/2111/211/2/1}
 Group   4 Type F   : 12s5p4d2f1g contracted to 6s4p3d1f1g pattern {711111/2111/211/2/1}
 Group   5 Type H   : 5s2p1d contracted to 3s1p1d pattern {311/2/1}
 Group   6 Type S   : 14s5p5d2f1g contracted to 8s4p3d1f1g pattern {71111111/2111/311/2/1}

Atom   0C    basis set group =>   1
Atom   1N    basis set group =>   2
Atom   2C    basis set group =>   1
Atom   3C    basis set group =>   1
Atom   4C    basis set group =>   1
Atom   5C    basis set group =>   1
Atom   6N    basis set group =>   2
Atom   7O    basis set group =>   3
Atom   8O    basis set group =>   3
Atom   9F    basis set group =>   4
Atom  10H    basis set group =>   5
Atom  11H    basis set group =>   5
Atom  12H    basis set group =>   5
Atom  13C    basis set group =>   1
Atom  14H    basis set group =>   5
Atom  15H    basis set group =>   5
Atom  16H    basis set group =>   5
Atom  17S    basis set group =>   6


           ************************************************************
           *        Program running with 24 parallel MPI-processes    *
           *              working on a common directory               *
           ************************************************************
------------------------------------------------------------------------------
                           ORCA GTO INTEGRAL CALCULATION
                           -- RI-GTO INTEGRALS CHOSEN --
------------------------------------------------------------------------------
------------------------------------------------------------------------------
                   ___                                                        
                  /   \      - P O W E R E D   B Y -                         
                 /     \                                                     
                 |  |  |   _    _      __       _____    __    __             
                 |  |  |  | |  | |    /  \     |  _  \  |  |  /  |          
                  \  \/   | |  | |   /    \    | | | |  |  | /  /          
                 / \  \   | |__| |  /  /\  \   | |_| |  |  |/  /          
                |  |  |   |  __  | /  /__\  \  |    /   |      \           
                |  |  |   | |  | | |   __   |  |    \   |  |\   \          
                \     /   | |  | | |  |  |  |  | |\  \  |  | \   \       
                 \___/    |_|  |_| |__|  |__|  |_| \__\ |__|  \__/        
                                                                              
                      - O R C A' S   B I G   F R I E N D -                    
                                      &                                       
                       - I N T E G R A L  F E E D E R -                       
                                                                              
 v1 FN, 2020, v2 2021                                                         
------------------------------------------------------------------------------


Reading SHARK input file structure_opt.SHARKINP.tmp ... ok
----------------------
SHARK INTEGRAL PACKAGE
----------------------

Number of atoms                             ...     18
Number of basis functions                   ...    314
Number of shells                            ...    154
Maximum angular momentum                    ...      2
Integral batch strategy                     ... SHARK/LIBINT Hybrid
RI-J (if used) integral strategy            ... SPLIT-RIJ (Revised 2003 algorithm where possible)
Printlevel                                  ...      1
Contraction scheme used                     ... SEGMENTED contraction
Coulomb Range Separation                    ... NOT USED
Exchange Range Separation                   ... Long Range
   Mu parameter                             ...  0.300000
   Scaling (regular/separated)              ...  0.157706  0.842294
Finite Nucleus Model                        ... NOT USED
Auxiliary Coulomb fitting basis             ... AVAILABLE
   # of basis functions in Aux-J            ...    656
   # of shells in Aux-J                     ...    212
   Maximum angular momentum in Aux-J        ...      4
Auxiliary J/K fitting basis                 ... NOT available
Auxiliary Correlation fitting basis         ... NOT available
Auxiliary 'external' fitting basis          ... NOT available
Integral threshold                          ...     2.500000e-11
Primitive cut-off                           ...     2.500000e-12
Primitive pair pre-selection threshold      ...     2.500000e-12

Calculating pre-screening integrals         ... done (  0.0 sec) Dimension = 154
Organizing shell pair data                  ... done (  0.1 sec)
Shell pair information
Total number of shell pairs                 ...     11935
Shell pairs after pre-screening             ...      8629
Total number of primitive shell pairs       ...     38500
Primitive shell pairs kept                  ...     19844
          la=0 lb=0:   2633 shell pairs
          la=1 lb=0:   3548 shell pairs
          la=1 lb=1:   1233 shell pairs
          la=2 lb=0:    686 shell pairs
          la=2 lb=1:    477 shell pairs
          la=2 lb=2:     52 shell pairs

Calculating one electron integrals          ... done (  0.0 sec)
Calculating RI/J V-Matrix + Cholesky decomp.... done (  0.0 sec)
Calculating Nuclear repulsion               ... done (  0.0 sec) ENN=    664.026328789686 Eh

SHARK setup successfully completed in   0.6 seconds

Maximum memory used throughout the entire GTOINT-calculation: 17.4 MB


           ************************************************************
           *        Program running with 24 parallel MPI-processes    *
           *              working on a common directory               *
           ************************************************************
-------------------------------------------------------------------------------
                                 ORCA SCF
-------------------------------------------------------------------------------

------------
SCF SETTINGS
------------
Hamiltonian:
 Density Functional     Method          .... DFT(GTOs)
 Exchange Functional    Exchange        .... WB97X
 Correlation Functional Correlation     .... WB97X
 Gradients option       PostSCFGGA      .... off
 Hybrid DFT is turned on
   Fraction HF Exchange ScalHFX         ....  0.157706
   Scaling of DF-GGA-X  ScalDFX         ....  0.000000
   Scaling of DF-GGA-C  ScalDFC         ....  1.000000
   Scaling of DF-LDA-C  ScalLDAC        ....  1.000000
   Perturbative correction              ....  0.000000
   Density functional embedding theory  .... OFF
 Long-range corrected/Screened/Range-Separated Hybrid DFT is turned on
   Amount of maximum screened exact exchange              ....  0.842294
   Range separation parameter mu (erf(mu*r12)/r12)        ....  0.300000
 RI-approximation to the Coulomb term is turned on
   Number of AuxJ basis functions       .... 656
   RIJ-COSX (HFX calculated with COS-X)).... on


General Settings:
 Integral files         IntName         .... structure_opt
 Hartree-Fock type      HFTyp           .... RHF
 Total Charge           Charge          ....   -1
 Multiplicity           Mult            ....    1
 Number of Electrons    NEL             ....   98
 Basis Dimension        Dim             ....  314
 Nuclear Repulsion      ENuc            ....    664.0263287897 Eh

Convergence Acceleration:
 DIIS                   CNVDIIS         .... on
   Start iteration      DIISMaxIt       ....    12
   Startup error        DIISStart       ....  0.200000
   # of expansion vecs  DIISMaxEq       ....     5
   Bias factor          DIISBfac        ....   1.050
   Max. coefficient     DIISMaxC        ....  10.000
 Trust-Rad. Augm. Hess. CNVTRAH         .... auto
   Auto Start mean grad. ratio tolernc. ....  1.125000
   Auto Start start iteration           ....    20
   Auto Start num. interpolation iter.  ....    10
   Max. Number of Micro iterations      ....    16
   Max. Number of Macro iterations      .... Maxiter - #DIIS iter
   Number of Davidson start vectors     ....     2
   Converg. threshold I  (grad. norm)   ....   1.000e-05
   Converg. threshold II (energy diff.) ....   1.000e-08
   Grad. Scal. Fac. for Micro threshold ....   0.100
   Minimum threshold for Micro iter.    ....   0.010
   NR start threshold (gradient norm)   ....   0.001
   Initial trust radius                 ....   0.400
   Minimum AH scaling param. (alpha)    ....   1.000
   Maximum AH scaling param. (alpha)    .... 1000.000
   Orbital update algorithm             .... Taylor
   White noise on init. David. guess    .... on
   Maximum white noise                  ....   0.010
   Quad. conv. algorithm                .... NR
 SOSCF                  CNVSOSCF        .... on
   Start iteration      SOSCFMaxIt      ....   150
   Startup grad/error   SOSCFStart      ....  0.003300
 Level Shifting         CNVShift        .... on
   Level shift para.    LevelShift      ....    0.2500
   Turn off err/grad.   ShiftErr        ....    0.0010
 Zerner damping         CNVZerner       .... off
 Static damping         CNVDamp         .... on
   Fraction old density DampFac         ....    0.7000
   Max. Damping (<1)    DampMax         ....    0.9800
   Min. Damping (>=0)   DampMin         ....    0.0000
   Turn off err/grad.   DampErr         ....    0.1000
 Fernandez-Rico         CNVRico         .... off

SCF Procedure:
 Maximum # iterations   MaxIter         ....   125
 SCF integral mode      SCFMode         .... Direct
   Integral package                     .... SHARK and LIBINT hybrid scheme
 Reset frequency        DirectResetFreq ....    20
 Integral Threshold     Thresh          ....  2.500e-11 Eh
 Primitive CutOff       TCut            ....  2.500e-12 Eh

Convergence Tolerance:
 Convergence Check Mode ConvCheckMode   .... Total+1el-Energy
 Convergence forced     ConvForced      .... 0
 Energy Change          TolE            ....  1.000e-08 Eh
 1-El. energy change                    ....  1.000e-05 Eh
 Orbital Gradient       TolG            ....  1.000e-05
 Orbital Rotation angle TolX            ....  1.000e-05
 DIIS Error             TolErr          ....  5.000e-07


Diagonalization of the overlap matrix:
Smallest eigenvalue                        ... 4.390e-06
Time for diagonalization                   ...    0.047 sec
Threshold for overlap eigenvalues          ... 1.000e-08
Number of eigenvalues below threshold      ... 0
Time for construction of square roots      ...    0.018 sec
Total time needed                          ...    0.066 sec

Time for model grid setup =    0.154 sec

------------------------------
INITIAL GUESS: MODEL POTENTIAL
------------------------------
Loading Hartree-Fock densities                     ... done
Calculating cut-offs                               ... done
Initializing the effective Hamiltonian             ... done
Setting up the integral package (SHARK)            ... done
Starting the Coulomb interaction                   ... done (   0.1 sec)
Reading the grid                                   ... done
Mapping shells                                     ... done
Starting the XC term evaluation                    ... done (   0.0 sec)
  promolecular density results
     # of electrons  =     96.995524650
     EX              =    -96.552288820
     EC              =     -3.327191832
     EX+EC           =    -99.879480652
Transforming the Hamiltonian                       ... done (   0.0 sec)
Diagonalizing the Hamiltonian                      ... done (   0.0 sec)
Back transforming the eigenvectors                 ... done (   0.0 sec)
Now organizing SCF variables                       ... done
                      ------------------
                      INITIAL GUESS DONE (   0.3 sec)
                      ------------------
-------------------
DFT GRID GENERATION
-------------------

General Integration Accuracy     IntAcc      ... 4.388
Radial Grid Type                 RadialGrid  ... OptM3 with GC (2021)
Angular Grid (max. ang.)         AngularGrid ... 4 (Lebedev-302)
Angular grid pruning method      GridPruning ... 4 (adaptive)
Weight generation scheme         WeightScheme... Becke
Basis function cutoff            BFCut       ... 1.0000e-11
Integration weight cutoff        WCut        ... 1.0000e-14
Angular grids for H and He will be reduced by one unit
Partially contracted basis set               ... off
Rotationally invariant grid construction     ... off

Total number of grid points                  ...    98132
Total number of batches                      ...     1542
Average number of points per batch           ...       63
Average number of grid points per atom       ...     5452
Time for grid setup =    0.831 sec

--------------------
COSX GRID GENERATION
--------------------

GRIDX 1
-------
General Integration Accuracy     IntAcc      ... 3.816
Radial Grid Type                 RadialGrid  ... OptM3 with GC (2021)
Angular Grid (max. ang.)         AngularGrid ... 1 (Lebedev-50)
Angular grid pruning method      GridPruning ... 4 (adaptive)
Weight generation scheme         WeightScheme... Becke
Basis function cutoff            BFCut       ... 1.0000e-11
Integration weight cutoff        WCut        ... 1.0000e-14
Angular grids for H and He will be reduced by one unit
Partially contracted basis set               ... on
Rotationally invariant grid construction     ... off

Total number of grid points                  ...    12267
Total number of batches                      ...      203
Average number of points per batch           ...       60
Average number of grid points per atom       ...      682
UseSFitting                                  ... on

GRIDX 2
-------
General Integration Accuracy     IntAcc      ... 4.020
Radial Grid Type                 RadialGrid  ... OptM3 with GC (2021)
Angular Grid (max. ang.)         AngularGrid ... 2 (Lebedev-110)
Angular grid pruning method      GridPruning ... 4 (adaptive)
Weight generation scheme         WeightScheme... Becke
Basis function cutoff            BFCut       ... 1.0000e-11
Integration weight cutoff        WCut        ... 1.0000e-14
Angular grids for H and He will be reduced by one unit
Partially contracted basis set               ... on
Rotationally invariant grid construction     ... off

Total number of grid points                  ...    31167
Total number of batches                      ...      496
Average number of points per batch           ...       62
Average number of grid points per atom       ...     1732
UseSFitting                                  ... on

GRIDX 3
-------
General Integration Accuracy     IntAcc      ... 4.338
Radial Grid Type                 RadialGrid  ... OptM3 with GC (2021)
Angular Grid (max. ang.)         AngularGrid ... 3 (Lebedev-194)
Angular grid pruning method      GridPruning ... 4 (adaptive)
Weight generation scheme         WeightScheme... Becke
Basis function cutoff            BFCut       ... 1.0000e-11
Integration weight cutoff        WCut        ... 1.0000e-14
Angular grids for H and He will be reduced by one unit
Partially contracted basis set               ... on
Rotationally invariant grid construction     ... off

Total number of grid points                  ...    69305
Total number of batches                      ...     1093
Average number of points per batch           ...       63
Average number of grid points per atom       ...     3850
UseSFitting                                  ... on

Time for X-Grid setup             =    0.667 sec


--------------------
CPCM SOLVATION MODEL
--------------------
CPCM parameters:
  Epsilon                                         ...      78.3550
  Refrac                                          ...       1.3328
  Rsolv                                           ...       1.3000
  Surface type                                    ... GAUSSIAN VDW
  Epsilon function type                           ...         CPCM
Solvent:                                     ... WATER
SMD-CDS solvent descriptors:
  Soln                                       ...    1.3328
  Soln25                                     ...    1.3323
  Sola                                       ...    0.0000
  Solb                                       ...    0.0000
  Solg                                       ...    0.0000
  Solc                                       ...    0.0000
  Solh                                       ...    0.0000
Radii:
 Radius for C  used is    3.4960 Bohr (=   1.8500 Ang.)
 Radius for N  used is    3.5716 Bohr (=   1.8900 Ang.)
 Radius for O  used is    2.8724 Bohr (=   1.5200 Ang.)
 Radius for F  used is    3.2692 Bohr (=   1.7300 Ang.)
 Radius for H  used is    2.2677 Bohr (=   1.2000 Ang.)
 Radius for S  used is    4.7054 Bohr (=   2.4900 Ang.)
Calculating surface                               ...        done! (  0.0s)
GEPOL surface points                              ...         1157
GEPOL Volume                                      ...    1364.9371
GEPOL Surface-area                                ...     848.4445
Calculating surface distance matrix               ...        done! (  0.0s)
Performing Cholesky decomposition & store         ...        done! (  0.3s)
Overall time for CPCM initialization              ...                 0.3s
--------------
SCF ITERATIONS
--------------
ITER       Energy         Delta-E        Max-DP      RMS-DP      [F,P]     Damp
               ***  Starting incremental Fock matrix formation  ***
  0   -989.8658337464   0.000000000000 0.31956990  0.00313524  0.2373465 0.7000
  1   -990.0280891590  -0.162255412606 0.29950223  0.00258837  0.1192453 0.7000
                               ***Turning on DIIS***
  2   -990.1005492895  -0.072460130579 1.65018824  0.00934698  0.0640208 0.0000
  3   -990.2246237770  -0.124074487455 0.71886647  0.00382555  0.0550119 0.0000
  4   -990.2437754209  -0.019151643915 0.26080947  0.00139889  0.0124205 0.0000
  5   -990.2449511027  -0.001175681756 0.13086133  0.00072312  0.0061386 0.0000
                      *** Initiating the SOSCF procedure ***
                           *** Shutting down DIIS ***
                      *** Re-Reading the Fockian *** 
                      *** Removing any level shift *** 
ITER      Energy       Delta-E        Grad      Rot      Max-DP    RMS-DP
  6   -990.24518237  -0.0002312672  0.001497  0.001497  0.037210  0.000236
               *** Restarting incremental Fock matrix formation ***
  7   -990.24527952  -0.0000971485  0.000980  0.002406  0.010507  0.000141
  8   -990.24531975  -0.0000402355  0.000344  0.002513  0.009283  0.000143
  9   -990.24532578  -0.0000060305  0.000695  0.000733  0.005713  0.000064
 10   -990.24533283  -0.0000070420  0.000114  0.000190  0.002350  0.000020
 11   -990.24533290  -0.0000000711  0.000094  0.000126  0.004218  0.000021
 12   -990.24533326  -0.0000003594  0.000015  0.000040  0.007678  0.000040
 13   -990.24533326  -0.0000000028  0.000007  0.000031  0.002964  0.000020
 14   -990.24533327  -0.0000000069  0.000005  0.000013  0.005195  0.000031
                  ***Gradient check signals convergence***
              ***Rediagonalizing the Fockian in SOSCF/NRSCF***

               *****************************************************
               *                     SUCCESS                       *
               *           SCF CONVERGED AFTER  15 CYCLES          *
               *****************************************************

Old exchange energy                            =    -28.432709009 Eh
New exchange energy                            =    -28.432714543 Eh
Exchange energy change after final integration =     -0.000005534 Eh
Total energy after final integration           =   -990.245338804 Eh
Final COS-X integration done in                =     3.454 sec

SMD CDS free energy correction energy :                 5.87302     Kcal/mol
Total Energy after SMD CDS correction =              -990.235979549 Eh

----------------
TOTAL SCF ENERGY
----------------

Total Energy       :         -990.23597955 Eh          -26945.69090 eV

Components:
Nuclear Repulsion  :          664.02632879 Eh           18069.07502 eV
Electronic Energy  :        -1654.26230834 Eh          -45014.76592 eV
One Electron Energy:        -2686.84554278 Eh          -73112.78420 eV
Two Electron Energy:         1032.58323444 Eh           28098.01828 eV
Max COSX asymmetry :            0.00000195 Eh               0.00005 eV
CPCM Dielectric    :           -0.13161485 Eh              -3.58142 eV
SMD CDS (Gcds)     :            0.00935925 Eh               0.25468 eV

Virial components:
Potential Energy   :        -1977.46850298 Eh          -53809.65360 eV
Kinetic Energy     :          987.23252343 Eh           26863.96270 eV
Virial Ratio       :            2.00304230


DFT components:
N(Alpha)           :       48.999870520364 electrons
N(Beta)            :       48.999870520364 electrons
N(Total)           :       97.999741040728 electrons
E(XC)              :      -73.338131551298 Eh       
DFET-embed. en.    :        0.000000000000 Eh       
CPCM Solvation Model Properties:
Surface-charge          :            0.94394626
Charge-correction       :           -0.00542474 Eh              -0.14761 eV
Free-energy (cav+disp)  :            0.00935925 Eh               0.25468 eV

---------------
SCF CONVERGENCE
---------------

  Last Energy change         ...   -3.6619e-09  Tolerance :   1.0000e-08
  Last MAX-Density change    ...    1.7764e-15  Tolerance :   1.0000e-07
  Last RMS-Density change    ...    3.2884e-17  Tolerance :   5.0000e-09
  Last Orbital Gradient      ...    1.9332e-06  Tolerance :   1.0000e-05
  Last Orbital Rotation      ...    1.8171e-06  Tolerance :   1.0000e-05

             **** THE GBW FILE WAS UPDATED (structure_opt.gbw) ****
             **** DENSITY structure_opt.scfp WAS UPDATED ****
             **** ENERGY FILE WAS UPDATED (structure_opt.en.tmp) ****
             **** THE GBW FILE WAS UPDATED (structure_opt.gbw) ****
             **** DENSITY structure_opt.scfp WAS UPDATED ****
----------------
ORBITAL ENERGIES
----------------

  NO   OCC          E(Eh)            E(eV) 
   0   2.0000     -88.720112     -2414.1970 
   1   2.0000     -24.793382      -674.6622 
   2   2.0000     -19.275746      -524.5197 
   3   2.0000     -19.244056      -523.6574 
   4   2.0000     -14.669965      -399.1901 
   5   2.0000     -14.435620      -392.8132 
   6   2.0000     -10.437785      -284.0266 
   7   2.0000     -10.364254      -282.0257 
   8   2.0000     -10.338289      -281.3191 
   9   2.0000     -10.321286      -280.8565 
  10   2.0000     -10.290590      -280.0212 
  11   2.0000     -10.235887      -278.5326 
  12   2.0000      -7.915995      -215.4052 
  13   2.0000      -5.879136      -159.9794 
  14   2.0000      -5.871747      -159.7784 
  15   2.0000      -5.871746      -159.7783 
  16   2.0000      -1.396418       -37.9985 
  17   2.0000      -1.348366       -36.6909 
  18   2.0000      -1.151629       -31.3374 
  19   2.0000      -1.109351       -30.1870 
  20   2.0000      -1.008523       -27.4433 
  21   2.0000      -0.943502       -25.6740 
  22   2.0000      -0.874104       -23.7856 
  23   2.0000      -0.836100       -22.7514 
  24   2.0000      -0.796754       -21.6808 
  25   2.0000      -0.769287       -20.9334 
  26   2.0000      -0.706094       -19.2138 
  27   2.0000      -0.686667       -18.6851 
  28   2.0000      -0.669494       -18.2179 
  29   2.0000      -0.665118       -18.0988 
  30   2.0000      -0.661856       -18.0100 
  31   2.0000      -0.633385       -17.2353 
  32   2.0000      -0.620434       -16.8829 
  33   2.0000      -0.615342       -16.7443 
  34   2.0000      -0.563889       -15.3442 
  35   2.0000      -0.537210       -14.6182 
  36   2.0000      -0.528024       -14.3683 
  37   2.0000      -0.528007       -14.3678 
  38   2.0000      -0.494416       -13.4538 
  39   2.0000      -0.494002       -13.4425 
  40   2.0000      -0.456233       -12.4147 
  41   2.0000      -0.432625       -11.7723 
  42   2.0000      -0.421795       -11.4776 
  43   2.0000      -0.416550       -11.3349 
  44   2.0000      -0.408106       -11.1051 
  45   2.0000      -0.390714       -10.6319 
  46   2.0000      -0.385018       -10.4769 
  47   2.0000      -0.258924        -7.0457 
  48   2.0000      -0.258873        -7.0443 
  49   0.0000      -0.064894        -1.7659 
  50   0.0000       0.022605         0.6151 
  51   0.0000       0.052553         1.4300 
  52   0.0000       0.055463         1.5092 
  53   0.0000       0.058591         1.5943 
  54   0.0000       0.067791         1.8447 
  55   0.0000       0.072325         1.9681 
  56   0.0000       0.088254         2.4015 
  57   0.0000       0.090104         2.4519 
  58   0.0000       0.090595         2.4652 
  59   0.0000       0.100725         2.7409 
  60   0.0000       0.111845         3.0435 
  61   0.0000       0.117842         3.2066 
  62   0.0000       0.124188         3.3793 
  63   0.0000       0.130984         3.5642 
  64   0.0000       0.137171         3.7326 
  65   0.0000       0.141881         3.8608 
  66   0.0000       0.145577         3.9613 
  67   0.0000       0.157653         4.2899 
  68   0.0000       0.163416         4.4468 
  69   0.0000       0.165327         4.4988 
  70   0.0000       0.168280         4.5791 
  71   0.0000       0.170903         4.6505 
  72   0.0000       0.172220         4.6863 
  73   0.0000       0.178615         4.8604 
  74   0.0000       0.179825         4.8933 
  75   0.0000       0.180952         4.9240 
  76   0.0000       0.191560         5.2126 
  77   0.0000       0.195673         5.3245 
  78   0.0000       0.196665         5.3515 
  79   0.0000       0.202358         5.5065 
  80   0.0000       0.209127         5.6906 
  81   0.0000       0.214238         5.8297 
  82   0.0000       0.221188         6.0188 
  83   0.0000       0.222453         6.0533 
  84   0.0000       0.234538         6.3821 
  85   0.0000       0.237324         6.4579 
  86   0.0000       0.247105         6.7241 
  87   0.0000       0.259831         7.0704 
  88   0.0000       0.264856         7.2071 
  89   0.0000       0.266679         7.2567 
  90   0.0000       0.270958         7.3731 
  91   0.0000       0.278012         7.5651 
  92   0.0000       0.278301         7.5730 
  93   0.0000       0.281250         7.6532 
  94   0.0000       0.283077         7.7029 
  95   0.0000       0.295917         8.0523 
  96   0.0000       0.299764         8.1570 
  97   0.0000       0.313806         8.5391 
  98   0.0000       0.317506         8.6398 
  99   0.0000       0.327173         8.9028 
 100   0.0000       0.334618         9.1054 
 101   0.0000       0.339130         9.2282 
 102   0.0000       0.349676         9.5152 
 103   0.0000       0.356032         9.6881 
 104   0.0000       0.361030         9.8241 
 105   0.0000       0.362815         9.8727 
 106   0.0000       0.371621        10.1123 
 107   0.0000       0.373850        10.1730 
 108   0.0000       0.397501        10.8166 
 109   0.0000       0.404148        10.9974 
 110   0.0000       0.409511        11.1434 
 111   0.0000       0.418202        11.3799 
 112   0.0000       0.425787        11.5862 
 113   0.0000       0.431095        11.7307 
 114   0.0000       0.439840        11.9686 
 115   0.0000       0.452580        12.3153 
 116   0.0000       0.457683        12.4542 
 117   0.0000       0.460740        12.5374 
 118   0.0000       0.471367        12.8266 
 119   0.0000       0.484316        13.1789 
 120   0.0000       0.492394        13.3987 
 121   0.0000       0.500884        13.6298 
 122   0.0000       0.519688        14.1414 
 123   0.0000       0.528336        14.3768 
 124   0.0000       0.528892        14.3919 
 125   0.0000       0.548897        14.9362 
 126   0.0000       0.584046        15.8927 
 127   0.0000       0.611077        16.6282 
 128   0.0000       0.612930        16.6787 
 129   0.0000       0.619412        16.8550 
 130   0.0000       0.630906        17.1678 
 131   0.0000       0.640629        17.4324 
 132   0.0000       0.654806        17.8182 
 133   0.0000       0.658078        17.9072 
 134   0.0000       0.669182        18.2094 
 135   0.0000       0.700570        19.0635 
 136   0.0000       0.702843        19.1253 
 137   0.0000       0.725038        19.7293 
 138   0.0000       0.744004        20.2454 
 139   0.0000       0.770690        20.9715 
 140   0.0000       0.770909        20.9775 
 141   0.0000       0.779228        21.2039 
 142   0.0000       0.811310        22.0769 
 143   0.0000       0.826133        22.4802 
 144   0.0000       0.840403        22.8685 
 145   0.0000       0.850402        23.1406 
 146   0.0000       0.853368        23.2213 
 147   0.0000       0.872981        23.7550 
 148   0.0000       0.898758        24.4565 
 149   0.0000       0.911352        24.7991 
 150   0.0000       0.920163        25.0389 
 151   0.0000       0.934356        25.4251 
 152   0.0000       0.953929        25.9577 
 153   0.0000       0.954196        25.9650 
 154   0.0000       0.960089        26.1254 
 155   0.0000       0.973555        26.4918 
 156   0.0000       0.980224        26.6732 
 157   0.0000       0.983921        26.7738 
 158   0.0000       1.004310        27.3287 
 159   0.0000       1.004326        27.3291 
 160   0.0000       1.007582        27.4177 
 161   0.0000       1.034609        28.1531 
 162   0.0000       1.045349        28.4454 
 163   0.0000       1.063490        28.9390 
 164   0.0000       1.074224        29.2311 
 165   0.0000       1.080314        29.3968 
 166   0.0000       1.083491        29.4833 
 167   0.0000       1.140103        31.0238 
 168   0.0000       1.144386        31.1403 
 169   0.0000       1.153104        31.3776 
 170   0.0000       1.172574        31.9074 
 171   0.0000       1.187883        32.3239 
 172   0.0000       1.198601        32.6156 
 173   0.0000       1.213043        33.0086 
 174   0.0000       1.249458        33.9995 
 175   0.0000       1.261991        34.3405 
 176   0.0000       1.277020        34.7495 
 177   0.0000       1.278830        34.7987 
 178   0.0000       1.279329        34.8123 
 179   0.0000       1.292740        35.1772 
 180   0.0000       1.298770        35.3413 
 181   0.0000       1.356520        36.9128 
 182   0.0000       1.397306        38.0226 
 183   0.0000       1.406473        38.2721 
 184   0.0000       1.471376        40.0382 
 185   0.0000       1.516557        41.2676 
 186   0.0000       1.548930        42.1485 
 187   0.0000       1.585794        43.1517 
 188   0.0000       1.589682        43.2575 
 189   0.0000       1.590411        43.2773 
 190   0.0000       1.617513        44.0148 
 191   0.0000       1.631936        44.4072 
 192   0.0000       1.655400        45.0457 
 193   0.0000       1.657609        45.1058 
 194   0.0000       1.693185        46.0739 
 195   0.0000       1.693626        46.0859 
 196   0.0000       1.704127        46.3717 
 197   0.0000       1.715488        46.6808 
 198   0.0000       1.748967        47.5918 
 199   0.0000       1.761074        47.9213 
 200   0.0000       1.786866        48.6231 
 201   0.0000       1.809139        49.2292 
 202   0.0000       1.809568        49.2409 
 203   0.0000       1.813275        49.3417 
 204   0.0000       1.842852        50.1466 
 205   0.0000       1.846741        50.2524 
 206   0.0000       1.868986        50.8577 
 207   0.0000       1.910329        51.9827 
 208   0.0000       1.933981        52.6263 
 209   0.0000       1.947130        52.9841 
 210   0.0000       1.970470        53.6192 
 211   0.0000       1.971310        53.6421 
 212   0.0000       1.990680        54.1691 
 213   0.0000       2.010554        54.7100 
 214   0.0000       2.031883        55.2903 
 215   0.0000       2.045180        55.6522 
 216   0.0000       2.051533        55.8251 
 217   0.0000       2.110613        57.4327 
 218   0.0000       2.140914        58.2572 
 219   0.0000       2.149202        58.4828 
 220   0.0000       2.168239        59.0008 
 221   0.0000       2.172895        59.1275 
 222   0.0000       2.176439        59.2239 
 223   0.0000       2.206386        60.0388 
 224   0.0000       2.292582        62.3843 
 225   0.0000       2.323760        63.2327 
 226   0.0000       2.331949        63.4555 
 227   0.0000       2.332641        63.4744 
 228   0.0000       2.399993        65.3071 
 229   0.0000       2.429494        66.1099 
 230   0.0000       2.495449        67.9046 
 231   0.0000       2.563704        69.7619 
 232   0.0000       2.589941        70.4759 
 233   0.0000       2.595550        70.6285 
 234   0.0000       2.604963        70.8846 
 235   0.0000       2.627083        71.4866 
 236   0.0000       2.659271        72.3625 
 237   0.0000       2.659953        72.3810 
 238   0.0000       2.673640        72.7534 
 239   0.0000       2.673780        72.7573 
 240   0.0000       2.692918        73.2780 
 241   0.0000       2.767885        75.3180 
 242   0.0000       2.784962        75.7827 
 243   0.0000       2.828608        76.9703 
 244   0.0000       2.840096        77.2830 
 245   0.0000       2.858386        77.7806 
 246   0.0000       2.867332        78.0241 
 247   0.0000       2.883126        78.4538 
 248   0.0000       2.894471        78.7626 
 249   0.0000       2.901536        78.9548 
 250   0.0000       2.931676        79.7750 
 251   0.0000       2.937177        79.9247 
 252   0.0000       2.960124        80.5491 
 253   0.0000       2.976314        80.9896 
 254   0.0000       2.986690        81.2720 
 255   0.0000       3.001933        81.6868 
 256   0.0000       3.008915        81.8767 
 257   0.0000       3.097716        84.2931 
 258   0.0000       3.152952        85.7962 
 259   0.0000       3.188548        86.7648 
 260   0.0000       3.268414        88.9381 
 261   0.0000       3.307272        89.9955 
 262   0.0000       3.307713        90.0074 
 263   0.0000       3.340063        90.8877 
 264   0.0000       3.368013        91.6483 
 265   0.0000       3.454237        93.9946 
 266   0.0000       3.497446        95.1703 
 267   0.0000       3.559208        96.8510 
 268   0.0000       3.593503        97.7842 
 269   0.0000       3.680796       100.1596 
 270   0.0000       3.703617       100.7805 
 271   0.0000       3.753460       102.1368 
 272   0.0000       3.853395       104.8562 
 273   0.0000       3.883413       105.6731 
 274   0.0000       3.888673       105.8162 
 275   0.0000       3.891387       105.8900 
 276   0.0000       3.902969       106.2052 
 277   0.0000       3.924623       106.7944 
 278   0.0000       4.014531       109.2410 
 279   0.0000       4.059862       110.4745 
 280   0.0000       4.119860       112.1071 
 281   0.0000       4.143755       112.7573 
 282   0.0000       4.169025       113.4449 
 283   0.0000       4.405512       119.8801 
 284   0.0000       4.481056       121.9357 
 285   0.0000       4.503669       122.5511 
 286   0.0000       4.760643       129.5437 
 287   0.0000       4.942709       134.4980 
 288   0.0000       5.071501       138.0026 
 289   0.0000       5.099499       138.7644 
 290   0.0000       5.191272       141.2617 
 291   0.0000       5.220130       142.0470 
 292   0.0000       5.314740       144.6214 
 293   0.0000       5.698439       155.0624 
 294   0.0000       6.130276       166.8133 
 295   0.0000       6.418678       174.6611 
 296   0.0000       6.539017       177.9357 
 297   0.0000       6.842786       186.2017 
 298   0.0000       7.977577       217.0809 
 299   0.0000      17.546088       477.4533 
 300   0.0000      17.546887       477.4751 
 301   0.0000      17.635668       479.8909 
 302   0.0000      23.651021       643.5770 
 303   0.0000      23.890217       650.0858 
 304   0.0000      23.983947       652.6364 
 305   0.0000      24.029944       653.8880 
 306   0.0000      24.071007       655.0054 
 307   0.0000      24.181409       658.0096 
 308   0.0000      35.375129       962.6062 
 309   0.0000      35.656951       970.2750 
 310   0.0000      49.899470      1357.8336 
 311   0.0000      49.963467      1359.5751 
 312   0.0000      66.792940      1817.5283 
 313   0.0000     188.966544      5142.0411 

--------------------
FRAGMENT INFORMATION
--------------------
Fragment  1:    0   1   2   3   4   5 
Fragment  2:    6   7   8   9  10  11  12 
Fragment  3:   13  14  15  16 
Fragment  4:   17 


                    ********************************
                    * MULLIKEN POPULATION ANALYSIS *
                    ********************************

-------------------------
MULLIKEN FRAGMENT CHARGES
-------------------------
 Fragment   0 :  -0.442811
 Fragment   1 :   0.442383
 Fragment   2 :  -0.025022
 Fragment   3 :  -0.974549
Sum of fragment charges:   -1.0000000

---------------------------------
MULLIKEN FRAGMENT OVERLAP CHARGES
---------------------------------
                  0          1          2          3    
      0      21.389957   0.622824  -0.000111  -0.000277
      1       0.622824  34.977464  -0.000005  -0.000034
      2      -0.000111  -0.000005  11.650849  -0.683139
      3      -0.000277  -0.000034  -0.683139  17.316275

-----------------------
MULLIKEN ATOMIC CHARGES
-----------------------
   0 C :   -0.052031
   1 N :   -0.187187
   2 C :   -0.305255
   3 C :   -0.240639
   4 C :    0.408398
   5 C :   -0.066097
   6 N :   -0.064201
   7 O :   -0.055161
   8 O :   -0.237920
   9 F :   -0.102307
  10 H :    0.294883
  11 H :    0.281459
  12 H :    0.325629
  13 C :   -0.404605
  14 H :    0.126418
  15 H :    0.126944
  16 H :    0.126220
  17 S :   -0.974549
Sum of atomic charges:   -1.0000000

--------------------------------
MULLIKEN REDUCED ORBITAL CHARGES
--------------------------------
  0 C s       :     3.289850  s :     3.289850
      pz      :     0.676301  p :     2.601724
      px      :     0.980091
      py      :     0.945332
      dz2     :     0.052760  d :     0.160457
      dxz     :     0.048840
      dyz     :     0.028444
      dx2y2   :     0.013769
      dxy     :     0.016644
  1 N s       :     3.615803  s :     3.615803
      pz      :     1.140912  p :     3.540857
      px      :     1.240242
      py      :     1.159703
      dz2     :     0.008167  d :     0.030527
      dxz     :     0.007239
      dyz     :     0.004756
      dx2y2   :     0.005505
      dxy     :     0.004859
  2 C s       :     3.384480  s :     3.384480
      pz      :     0.811050  p :     2.836629
      px      :     1.168914
      py      :     0.856665
      dz2     :     0.023580  d :     0.084146
      dxz     :     0.032197
      dyz     :     0.014797
      dx2y2   :     0.007221
      dxy     :     0.006351
  3 C s       :     3.197644  s :     3.197644
      pz      :     1.153092  p :     2.989838
      px      :     0.870432
      py      :     0.966315
      dz2     :     0.015294  d :     0.053158
      dxz     :     0.017413
      dyz     :     0.005093
      dx2y2   :     0.008210
      dxy     :     0.007148
  4 C s       :     2.530148  s :     2.530148
      pz      :     0.905900  p :     3.004357
      px      :     1.251471
      py      :     0.846986
      dz2     :     0.016548  d :     0.057097
      dxz     :     0.015859
      dyz     :     0.010569
      dx2y2   :     0.007217
      dxy     :     0.006904
  5 C s       :     3.291698  s :     3.291698
      pz      :     1.096186  p :     2.701255
      px      :     0.482923
      py      :     1.122147
      dz2     :     0.013628  d :     0.073143
      dxz     :     0.029768
      dyz     :     0.010343
      dx2y2   :     0.011219
      dxy     :     0.008186
  6 N s       :     3.584243  s :     3.584243
      pz      :     1.058615  p :     3.370963
      px      :     1.210742
      py      :     1.101606
      dz2     :     0.027718  d :     0.108995
      dxz     :     0.039362
      dyz     :     0.023078
      dx2y2   :     0.008550
      dxy     :     0.010286
  7 O s       :     3.780279  s :     3.780279
      pz      :     1.027152  p :     4.256184
      px      :     1.828515
      py      :     1.400516
      dz2     :     0.009710  d :     0.018698
      dxz     :     0.003513
      dyz     :     0.005306
      dx2y2   :     0.000102
      dxy     :     0.000067
  8 O s       :     3.823918  s :     3.823918
      pz      :     1.624868  p :     4.401887
      px      :     1.218467
      py      :     1.558552
      dz2     :     0.001059  d :     0.012115
      dxz     :     0.004900
      dyz     :     0.000879
      dx2y2   :     0.003118
      dxy     :     0.002159
  9 F s       :     3.918967  s :     3.918967
      pz      :     1.389125  p :     5.178008
      px      :     1.915734
      py      :     1.873148
      dz2     :     0.003097  d :     0.005332
      dxz     :     0.000998
      dyz     :     0.001201
      dx2y2   :     0.000027
      dxy     :     0.000009
 10 H s       :     0.681216  s :     0.681216
      pz      :     0.005481  p :     0.023901
      px      :     0.014124
      py      :     0.004296
 11 H s       :     0.693577  s :     0.693577
      pz      :     0.016374  p :     0.024964
      px      :     0.003655
      py      :     0.004935
 12 H s       :     0.648848  s :     0.648848
      pz      :     0.007744  p :     0.025523
      px      :     0.013377
      py      :     0.004402
 13 C s       :     3.265346  s :     3.265346
      pz      :     1.060516  p :     3.086649
      px      :     1.051362
      py      :     0.974772
      dz2     :     0.009048  d :     0.052609
      dxz     :     0.005101
      dyz     :     0.015077
      dx2y2   :     0.014136
      dxy     :     0.009248
 14 H s       :     0.850871  s :     0.850871
      pz      :     0.005022  p :     0.022712
      px      :     0.013028
      py      :     0.004662
 15 H s       :     0.850308  s :     0.850308
      pz      :     0.008871  p :     0.022747
      px      :     0.006795
      py      :     0.007081
 16 H s       :     0.851060  s :     0.851060
      pz      :     0.011629  p :     0.022719
      px      :     0.004913
      py      :     0.006178
 17 S s       :     6.024545  s :     6.024545
      pz      :     3.995656  p :    10.918599
      px      :     3.894304
      py      :     3.028638
      dz2     :     0.005602  d :     0.031405
      dxz     :     0.000333
      dyz     :     0.004204
      dx2y2   :     0.012627
      dxy     :     0.008640


                     *******************************
                     * LOEWDIN POPULATION ANALYSIS *
                     *******************************

------------------------
LOEWDIN FRAGMENT CHARGES
------------------------
 Fragment   0 :   0.057962
 Fragment   1 :  -0.057988
 Fragment   2 :  -0.355279
 Fragment   3 :  -0.644695

----------------------------
LOEWDIN FRAGMENT BOND ORDERS
----------------------------
                  0          1          2          3    
      0      56.960883   6.779043   0.000046   0.000215
      1       6.779043  43.787581   0.000006   0.000041
      2       0.000046   0.000006  15.419650   1.742485
      3       0.000215   0.000041   1.742485  16.644695

----------------------
LOEWDIN ATOMIC CHARGES
----------------------
   0 C :    0.111344
   1 N :   -0.111474
   2 C :    0.077466
   3 C :   -0.033732
   4 C :    0.078056
   5 C :   -0.063697
   6 N :    0.241468
   7 O :   -0.154153
   8 O :   -0.338990
   9 F :   -0.078076
  10 H :    0.087042
  11 H :    0.084563
  12 H :    0.100159
  13 C :   -0.358571
  14 H :    0.001117
  15 H :    0.001132
  16 H :    0.001042
  17 S :   -0.644695

-------------------------------
LOEWDIN REDUCED ORBITAL CHARGES
-------------------------------
  0 C s       :     2.743793  s :     2.743793
      pz      :     0.849359  p :     2.815731
      px      :     1.080529
      py      :     0.885843
      dz2     :     0.112519  d :     0.329132
      dxz     :     0.100716
      dyz     :     0.050388
      dx2y2   :     0.033884
      dxy     :     0.031624
  1 N s       :     3.151512  s :     3.151512
      pz      :     1.301155  p :     3.903122
      px      :     1.416834
      py      :     1.185133
      dz2     :     0.017387  d :     0.056840
      dxz     :     0.015720
      dyz     :     0.007789
      dx2y2   :     0.009545
      dxy     :     0.006399
  2 C s       :     2.786900  s :     2.786900
      pz      :     1.032897  p :     2.953792
      px      :     1.096519
      py      :     0.824376
      dz2     :     0.060303  d :     0.181842
      dxz     :     0.069057
      dyz     :     0.027977
      dx2y2   :     0.014013
      dxy     :     0.010493
  3 C s       :     2.781230  s :     2.781230
      pz      :     1.081339  p :     3.128147
      px      :     1.092118
      py      :     0.954689
      dz2     :     0.034118  d :     0.124356
      dxz     :     0.045069
      dyz     :     0.008011
      dx2y2   :     0.022212
      dxy     :     0.014945
  4 C s       :     2.779257  s :     2.779257
      pz      :     1.065810  p :     3.014390
      px      :     1.108257
      py      :     0.840323
      dz2     :     0.040907  d :     0.128297
      dxz     :     0.039162
      dyz     :     0.021255
      dx2y2   :     0.015051
      dxy     :     0.011922
  5 C s       :     2.757931  s :     2.757931
      pz      :     1.088462  p :     3.125442
      px      :     0.957230
      py      :     1.079751
      dz2     :     0.039908  d :     0.180324
      dxz     :     0.071779
      dyz     :     0.019836
      dx2y2   :     0.031419
      dxy     :     0.017381
  6 N s       :     3.052034  s :     3.052034
      pz      :     1.205970  p :     3.500137
      px      :     1.215083
      py      :     1.079084
      dz2     :     0.060435  d :     0.206361
      dxz     :     0.076191
      dyz     :     0.035697
      dx2y2   :     0.017513
      dxy     :     0.016525
  7 O s       :     3.581226  s :     3.581226
      pz      :     1.283722  p :     4.540615
      px      :     1.838846
      py      :     1.418047
      dz2     :     0.020437  d :     0.032312
      dxz     :     0.005157
      dyz     :     0.006529
      dx2y2   :     0.000119
      dxy     :     0.000071
  8 O s       :     3.667372  s :     3.667372
      pz      :     1.709919  p :     4.651137
      px      :     1.369858
      py      :     1.571359
      dz2     :     0.001545  d :     0.020481
      dxz     :     0.009263
      dyz     :     0.001173
      dx2y2   :     0.005711
      dxy     :     0.002789
  9 F s       :     3.714952  s :     3.714952
      pz      :     1.535169  p :     5.355754
      px      :     1.934337
      py      :     1.886248
      dz2     :     0.004766  d :     0.007371
      dxz     :     0.001184
      dyz     :     0.001375
      dx2y2   :     0.000037
      dxy     :     0.000009
 10 H s       :     0.842557  s :     0.842557
      pz      :     0.016676  p :     0.070401
      px      :     0.042302
      py      :     0.011422
 11 H s       :     0.842989  s :     0.842989
      pz      :     0.047835  p :     0.072449
      px      :     0.011209
      py      :     0.013404
 12 H s       :     0.826615  s :     0.826615
      pz      :     0.023098  p :     0.073226
      px      :     0.038709
      py      :     0.011418
 13 C s       :     2.858263  s :     2.858263
      pz      :     1.118062  p :     3.393435
      px      :     1.121761
      py      :     1.153612
      dz2     :     0.018381  d :     0.106873
      dxz     :     0.009288
      dyz     :     0.030000
      dx2y2   :     0.030015
      dxy     :     0.019190
 14 H s       :     0.927181  s :     0.927181
      pz      :     0.014693  p :     0.071702
      px      :     0.042259
      py      :     0.014750
 15 H s       :     0.927046  s :     0.927046
      pz      :     0.027734  p :     0.071822
      px      :     0.020628
      py      :     0.023460
 16 H s       :     0.927168  s :     0.927168
      pz      :     0.037101  p :     0.071790
      px      :     0.014387
      py      :     0.020302
 17 S s       :     5.613814  s :     5.613814
      pz      :     3.936795  p :    10.993760
      px      :     3.858886
      py      :     3.198079
      dz2     :     0.006761  d :     0.037120
      dxz     :     0.000366
      dyz     :     0.004714
      dx2y2   :     0.015104
      dxy     :     0.010176


                      *****************************
                      * MAYER POPULATION ANALYSIS *
                      *****************************

  NA   - Mulliken gross atomic population
  ZA   - Total nuclear charge
  QA   - Mulliken gross atomic charge
  VA   - Mayer's total valence
  BVA  - Mayer's bonded valence
  FA   - Mayer's free valence

  ATOM       NA         ZA         QA         VA         BVA        FA
  0 C      6.0520     6.0000    -0.0520     4.3575     4.3575     0.0000
  1 N      7.1872     7.0000    -0.1872     2.6894     2.6894    -0.0000
  2 C      6.3053     6.0000    -0.3053     3.9847     3.9847     0.0000
  3 C      6.2406     6.0000    -0.2406     4.3263     4.3263     0.0000
  4 C      5.5916     6.0000     0.4084     4.2017     4.2017    -0.0000
  5 C      6.0661     6.0000    -0.0661     3.3525     3.3525     0.0000
  6 N      7.0642     7.0000    -0.0642     3.9082     3.9082     0.0000
  7 O      8.0552     8.0000    -0.0552     2.2098     2.2098    -0.0000
  8 O      8.2379     8.0000    -0.2379     1.9969     1.9969     0.0000
  9 F      9.1023     9.0000    -0.1023     0.9614     0.9614     0.0000
 10 H      0.7051     1.0000     0.2949     0.8735     0.8735     0.0000
 11 H      0.7185     1.0000     0.2815     0.9022     0.9022     0.0000
 12 H      0.6744     1.0000     0.3256     0.8354     0.8354    -0.0000
 13 C      6.4046     6.0000    -0.4046     3.5655     3.5655     0.0000
 14 H      0.8736     1.0000     0.1264     0.9426     0.9426    -0.0000
 15 H      0.8731     1.0000     0.1269     0.9427     0.9427     0.0000
 16 H      0.8738     1.0000     0.1262     0.9428     0.9428     0.0000
 17 S     16.9745    16.0000    -0.9745     0.5905     0.5905    -0.0000

  Mayer bond orders larger than 0.100000
B(  0-C ,  1-N ) :   1.2964 B(  0-C ,  2-C ) :   0.1954 B(  0-C ,  3-C ) :   0.1464 
B(  0-C ,  4-C ) :   0.3103 B(  0-C ,  5-C ) :   1.1973 B(  0-C ,  6-N ) :  -0.1838 
B(  0-C ,  9-F ) :   1.4025 B(  1-N ,  2-C ) :   1.1840 B(  1-N ,  5-C ) :   0.1662 
B(  2-C ,  3-C ) :   1.5785 B(  2-C , 10-H ) :   0.8844 B(  3-C ,  4-C ) :   1.5017 
B(  3-C ,  8-O ) :   0.1319 B(  3-C , 11-H ) :   0.8457 B(  4-C ,  5-C ) :   1.6117 
B(  4-C ,  6-N ) :  -0.1438 B(  4-C ,  8-O ) :   0.1614 B(  4-C ,  9-F ) :  -0.1148 
B(  4-C , 12-H ) :   0.7516 B(  5-C ,  6-N ) :   0.7484 B(  5-C ,  8-O ) :  -0.1607 
B(  5-C ,  9-F ) :  -0.3552 B(  5-C , 12-H ) :   0.1205 B(  6-N ,  7-O ) :   1.8581 
[...]
 289   0.0000       5.123963       139.4301 
 290   0.0000       5.196116       141.3935 
 291   0.0000       5.287090       143.8690 
 292   0.0000       5.370571       146.1407 
 293   0.0000       5.859124       159.4349 
 294   0.0000       6.335618       172.4009 
 295   0.0000       6.426946       174.8861 
 296   0.0000       6.549272       178.2147 
 297   0.0000       6.863490       186.7651 
 298   0.0000       7.977605       217.0817 
 299   0.0000      17.546112       477.4540 
 300   0.0000      17.546927       477.4762 
 301   0.0000      17.635776       479.8939 
 302   0.0000      23.701266       644.9442 
 303   0.0000      23.954445       651.8336 
 304   0.0000      24.018271       653.5704 
 305   0.0000      24.029888       653.8865 
 306   0.0000      24.135841       656.7696 
 307   0.0000      24.245666       659.7581 
 308   0.0000      35.450064       964.6453 
 309   0.0000      35.736416       972.4373 
 310   0.0000      49.920789      1358.4137 
 311   0.0000      50.036676      1361.5672 
 312   0.0000      66.806344      1817.8930 
 313   0.0000     188.966572      5142.0418 

--------------------
FRAGMENT INFORMATION
--------------------
Fragment  1:    0   1   2   3   4   5 
Fragment  2:    6   7   8   9  10  11  12 
Fragment  3:   13  14  15  16 
Fragment  4:   17 


                    ********************************
                    * MULLIKEN POPULATION ANALYSIS *
                    ********************************

-------------------------
MULLIKEN FRAGMENT CHARGES
-------------------------
 Fragment   0 :  -0.457021
 Fragment   1 :   0.456595
 Fragment   2 :  -0.024918
 Fragment   3 :  -0.974655
Sum of fragment charges:   -1.0000000

---------------------------------
MULLIKEN FRAGMENT OVERLAP CHARGES
---------------------------------
                  0          1          2          3    
      0      19.640123   0.478994  -0.000114  -0.000281
      1       0.478994  35.111050  -0.000004  -0.000034
      2      -0.000114  -0.000004  11.650590  -0.682625
      3      -0.000281  -0.000034  -0.682625  17.316125

-----------------------
MULLIKEN ATOMIC CHARGES
-----------------------
   0 C :   -0.024833
   1 N :   -0.175778
   2 C :   -0.297678
   3 C :   -0.298312
   4 C :    0.480962
   5 C :   -0.141381
   6 N :   -0.016334
   7 O :   -0.174189
   8 O :   -0.118795
   9 F :   -0.117766
  10 H :    0.283936
  11 H :    0.279917
  12 H :    0.319825
  13 C :   -0.404427
  14 H :    0.126478
  15 H :    0.126836
  16 H :    0.126194
  17 S :   -0.974655
Sum of atomic charges:   -1.0000000

--------------------------------
MULLIKEN REDUCED ORBITAL CHARGES
--------------------------------
  0 C s       :     3.250795  s :     3.250795
      pz      :     0.670414  p :     2.603795
      px      :     0.983977
      py      :     0.949404
      dz2     :     0.057187  d :     0.170243
      dxz     :     0.050581
      dyz     :     0.029422
      dx2y2   :     0.014657
      dxy     :     0.018397
  1 N s       :     3.594995  s :     3.594995
      pz      :     1.149887  p :     3.546248
      px      :     1.248156
      py      :     1.148205
      dz2     :     0.008762  d :     0.034535
      dxz     :     0.008591
      dyz     :     0.005227
      dx2y2   :     0.006114
      dxy     :     0.005841
  2 C s       :     3.330540  s :     3.330540
      pz      :     0.824578  p :     2.878188
      px      :     1.179385
      py      :     0.874224
      dz2     :     0.025178  d :     0.088950
      dxz     :     0.033470
      dyz     :     0.015873
      dx2y2   :     0.007912
      dxy     :     0.006517
  3 C s       :     3.242412  s :     3.242412
      pz      :     1.151424  p :     3.000291
      px      :     0.881216
      py      :     0.967651
      dz2     :     0.015876  d :     0.055609
      dxz     :     0.018416
      dyz     :     0.005664
      dx2y2   :     0.008177
      dxy     :     0.007476
  4 C s       :     2.440439  s :     2.440439
      pz      :     0.925635  p :     3.018941
      px      :     1.244089
      py      :     0.849218
      dz2     :     0.017059  d :     0.059658
      dxz     :     0.016309
      dyz     :     0.011353
      dx2y2   :     0.007712
      dxy     :     0.007224
  5 C s       :     3.338577  s :     3.338577
      pz      :     1.100879  p :     2.729194
      px      :     0.499602
      py      :     1.128713
      dz2     :     0.013333  d :     0.073610
      dxz     :     0.030704
      dyz     :     0.010355
      dx2y2   :     0.011151
      dxy     :     0.008067
  6 N s       :     3.487792  s :     3.487792
      pz      :     1.052507  p :     3.391077
      px      :     1.229821
      py      :     1.108750
      dz2     :     0.037080  d :     0.137466
      dxz     :     0.044585
      dyz     :     0.027885
      dx2y2   :     0.012474
      dxy     :     0.015441
  7 O s       :     3.808213  s :     3.808213
      pz      :     1.027788  p :     4.347910
      px      :     1.843167
      py      :     1.476956
      dz2     :     0.009698  d :     0.018066
      dxz     :     0.003221
      dyz     :     0.004972
      dx2y2   :     0.000105
      dxy     :     0.000070
  8 O s       :     3.780417  s :     3.780417
      pz      :     1.602415  p :     4.318425
      px      :     1.282256
      py      :     1.433754
      dz2     :     0.002239  d :     0.019952
      dxz     :     0.007023
      dyz     :     0.001776
      dx2y2   :     0.004634
      dxy     :     0.004280
  9 F s       :     3.917970  s :     3.917970
      pz      :     1.398797  p :     5.194561
      px      :     1.917926
      py      :     1.877838
      dz2     :     0.003050  d :     0.005235
      dxz     :     0.000973
      dyz     :     0.001172
      dx2y2   :     0.000030
      dxy     :     0.000010
 10 H s       :     0.692765  s :     0.692765
      pz      :     0.004493  p :     0.023299
      px      :     0.014500
      py      :     0.004306
 11 H s       :     0.694892  s :     0.694892
      pz      :     0.016421  p :     0.025191
      px      :     0.003788
      py      :     0.004983
 12 H s       :     0.654349  s :     0.654349
      pz      :     0.007633  p :     0.025826
      px      :     0.013708
      py      :     0.004484
 13 C s       :     3.265228  s :     3.265228
      pz      :     1.060446  p :     3.086590
      px      :     1.051445
      py      :     0.974699
      dz2     :     0.009085  d :     0.052609
      dxz     :     0.005091
      dyz     :     0.015035
      dx2y2   :     0.014126
      dxy     :     0.009272
 14 H s       :     0.850798  s :     0.850798
      pz      :     0.005028  p :     0.022724
      px      :     0.013028
      py      :     0.004667
 15 H s       :     0.850427  s :     0.850427
      pz      :     0.008843  p :     0.022736
      px      :     0.006798
      py      :     0.007095
 16 H s       :     0.851091  s :     0.851091
      pz      :     0.011651  p :     0.022715
      px      :     0.004911
      py      :     0.006153
 17 S s       :     6.024592  s :     6.024592
      pz      :     3.995619  p :    10.918658
      px      :     3.894826
      py      :     3.028212
      dz2     :     0.005603  d :     0.031405
      dxz     :     0.000331
      dyz     :     0.004205
      dx2y2   :     0.012645
      dxy     :     0.008622


                     *******************************
                     * LOEWDIN POPULATION ANALYSIS *
                     *******************************

------------------------
LOEWDIN FRAGMENT CHARGES
------------------------
 Fragment   0 :   0.040155
 Fragment   1 :  -0.040183
 Fragment   2 :  -0.355288
 Fragment   3 :  -0.644684

----------------------------
LOEWDIN FRAGMENT BOND ORDERS
----------------------------
                  0          1          2          3    
      0      57.186481   6.721387   0.000047   0.000214
      1       6.721387  44.210170   0.000006   0.000042
      2       0.000047   0.000006  15.419633   1.742496
      3       0.000214   0.000042   1.742496  16.644684

----------------------
LOEWDIN ATOMIC CHARGES
----------------------
   0 C :    0.083105
   1 N :   -0.080133
   2 C :    0.058242
   3 C :   -0.032923
   4 C :    0.075075
   5 C :   -0.063212
   6 N :    0.202528
   7 O :   -0.224637
   8 O :   -0.197879
   9 F :   -0.088309
  10 H :    0.083800
  11 H :    0.085953
  12 H :    0.098361
  13 C :   -0.358573
  14 H :    0.001027
  15 H :    0.001193
  16 H :    0.001065
  17 S :   -0.644684

-------------------------------
LOEWDIN REDUCED ORBITAL CHARGES
-------------------------------
  0 C s       :     2.730848  s :     2.730848
      pz      :     0.852208  p :     2.834947
      px      :     1.094980
      py      :     0.887758
      dz2     :     0.121849  d :     0.351100
      dxz     :     0.104269
      dyz     :     0.052106
      dx2y2   :     0.037282
      dxy     :     0.035595
  1 N s       :     3.108633  s :     3.108633
      pz      :     1.300810  p :     3.906525
      px      :     1.432483
      py      :     1.173231
      dz2     :     0.019008  d :     0.064975
      dxz     :     0.018324
      dyz     :     0.009056
      dx2y2   :     0.010761
      dxy     :     0.007827
  2 C s       :     2.774395  s :     2.774395
      pz      :     1.042310  p :     2.973717
      px      :     1.092657
      py      :     0.838750
      dz2     :     0.064343  d :     0.193646
      dxz     :     0.072804
      dyz     :     0.030579
      dx2y2   :     0.015203
      dxy     :     0.010717
  3 C s       :     2.772388  s :     2.772388
      pz      :     1.079682  p :     3.131108
      px      :     1.096151
      py      :     0.955275
      dz2     :     0.035195  d :     0.129427
      dxz     :     0.047287
      dyz     :     0.008804
      dx2y2   :     0.022384
      dxy     :     0.015757
  4 C s       :     2.768350  s :     2.768350
      pz      :     1.074428  p :     3.021732
      px      :     1.105339
      py      :     0.841965
      dz2     :     0.042331  d :     0.134843
      dxz     :     0.040867
      dyz     :     0.022950
      dx2y2   :     0.016068
      dxy     :     0.012627
  5 C s       :     2.752447  s :     2.752447
      pz      :     1.090804  p :     3.128954
      px      :     0.955934
      py      :     1.082216
      dz2     :     0.039808  d :     0.181811
      dxz     :     0.073753
      dyz     :     0.020093
      dx2y2   :     0.030962
      dxy     :     0.017195
  6 N s       :     2.999896  s :     2.999896
      pz      :     1.218281  p :     3.531640
      px      :     1.231846
      py      :     1.081513
      dz2     :     0.079057  d :     0.265936
      dxz     :     0.090669
      dyz     :     0.044082
      dx2y2   :     0.026996
      dxy     :     0.025131
  7 O s       :     3.573934  s :     3.573934
      pz      :     1.278688  p :     4.619159
      px      :     1.850258
      py      :     1.490213
      dz2     :     0.020366  d :     0.031543
      dxz     :     0.004812
      dyz     :     0.006161
      dx2y2   :     0.000131
      dxy     :     0.000074
  8 O s       :     3.550175  s :     3.550175
      pz      :     1.709847  p :     4.612667
      px      :     1.450893
      py      :     1.451926
      dz2     :     0.003476  d :     0.035037
      dxz     :     0.014321
      dyz     :     0.002457
      dx2y2   :     0.009118
      dxy     :     0.005666
  9 F s       :     3.713895  s :     3.713895
      pz      :     1.539321  p :     5.367152
      px      :     1.937508
      py      :     1.890323
      dz2     :     0.004697  d :     0.007262
      dxz     :     0.001169
      dyz     :     0.001345
      dx2y2   :     0.000040
      dxy     :     0.000010
 10 H s       :     0.847580  s :     0.847580
      pz      :     0.014058  p :     0.068620
      px      :     0.042942
      py      :     0.011620
 11 H s       :     0.841848  s :     0.841848
      pz      :     0.047436  p :     0.072199
      px      :     0.011374
      py      :     0.013389
 12 H s       :     0.828080  s :     0.828080
      pz      :     0.022447  p :     0.073559
      px      :     0.039510
      py      :     0.011602
 13 C s       :     2.858286  s :     2.858286
      pz      :     1.117998  p :     3.393416
      px      :     1.121806
      py      :     1.153612
      dz2     :     0.018455  d :     0.106872
      dxz     :     0.009270
      dyz     :     0.029913
      dx2y2   :     0.029996
      dxy     :     0.019238
 14 H s       :     0.927212  s :     0.927212
      pz      :     0.014715  p :     0.071761
      px      :     0.042272
      py      :     0.014774
 15 H s       :     0.927040  s :     0.927040
      pz      :     0.027629  p :     0.071767
      px      :     0.020634
      py      :     0.023504
 16 H s       :     0.927163  s :     0.927163
      pz      :     0.037176  p :     0.071772
      px      :     0.014379
      py      :     0.020217
 17 S s       :     5.613815  s :     5.613815
      pz      :     3.936784  p :    10.993747
      px      :     3.859275
      py      :     3.197688
      dz2     :     0.006762  d :     0.037121
      dxz     :     0.000363
      dyz     :     0.004715
      dx2y2   :     0.015127
      dxy     :     0.010154


                      *****************************
                      * MAYER POPULATION ANALYSIS *
                      *****************************

  NA   - Mulliken gross atomic population
  ZA   - Total nuclear charge
  QA   - Mulliken gross atomic charge
  VA   - Mayer's total valence
  BVA  - Mayer's bonded valence
  FA   - Mayer's free valence

  ATOM       NA         ZA         QA         VA         BVA        FA
  0 C      6.0248     6.0000    -0.0248     4.2903     4.2903     0.0000
  1 N      7.1758     7.0000    -0.1758     2.7140     2.7140    -0.0000
  2 C      6.2977     6.0000    -0.2977     4.0354     4.0354    -0.0000
  3 C      6.2983     6.0000    -0.2983     4.4596     4.4596     0.0000
  4 C      5.5190     6.0000     0.4810     4.1170     4.1170    -0.0000
  5 C      6.1414     6.0000    -0.1414     3.3562     3.3562    -0.0000
  6 N      7.0163     7.0000    -0.0163     4.0183     4.0183     0.0000
  7 O      8.1742     8.0000    -0.1742     2.1027     2.1027    -0.0000
  8 O      8.1188     8.0000    -0.1188     2.1796     2.1796    -0.0000
  9 F      9.1178     9.0000    -0.1178     0.9233     0.9233     0.0000
 10 H      0.7161     1.0000     0.2839     0.8755     0.8755     0.0000
 11 H      0.7201     1.0000     0.2799     0.9062     0.9062     0.0000
 12 H      0.6802     1.0000     0.3198     0.8411     0.8411     0.0000
 13 C      6.4044     6.0000    -0.4044     3.5656     3.5656    -0.0000
 14 H      0.8735     1.0000     0.1265     0.9426     0.9426    -0.0000
 15 H      0.8732     1.0000     0.1268     0.9428     0.9428    -0.0000
 16 H      0.8738     1.0000     0.1262     0.9428     0.9428    -0.0000
 17 S     16.9747    16.0000    -0.9747     0.5905     0.5905     0.0000

  Mayer bond orders larger than 0.100000
B(  0-C ,  1-N ) :   1.3053 B(  0-C ,  2-C ) :   0.1764 B(  0-C ,  3-C ) :   0.1690 
B(  0-C ,  4-C ) :   0.2655 B(  0-C ,  5-C ) :   1.2216 B(  0-C ,  6-N ) :  -0.1776 
B(  0-C ,  7-O ) :   0.1089 B(  0-C ,  8-O ) :  -0.1047 B(  0-C ,  9-F ) :   1.3550 
B(  1-N ,  2-C ) :   1.1671 B(  1-N ,  5-C ) :   0.1884 B(  2-C ,  3-C ) :   1.6626 
B(  2-C ,  5-C ) :   0.1041 B(  2-C , 10-H ) :   0.8857 B(  3-C ,  4-C ) :   1.4476 
B(  3-C ,  8-O ) :   0.1463 B(  3-C , 11-H ) :   0.8426 B(  4-C ,  5-C ) :   1.5955 
B(  4-C ,  8-O ) :   0.2354 B(  4-C ,  9-F ) :  -0.1241 B(  4-C , 12-H ) :   0.7194 
B(  5-C ,  6-N ) :   0.6645 B(  5-C ,  7-O ) :  -0.1269 B(  5-C ,  8-O ) :  -0.2026 
B(  5-C ,  9-F ) :  -0.3328 B(  5-C , 12-H ) :   0.1439 B(  6-N ,  7-O ) :   1.8275 
B(  6-N ,  8-O ) :   1.8498 B(  7-O ,  8-O ) :   0.2357 B( 13-C , 14-H ) :   0.9824 
B( 13-C , 15-H ) :   0.9827 B( 13-C , 16-H ) :   0.9802 B( 13-C , 17-S ) :   0.6205 


-------
TIMINGS
-------

Total SCF time: 0 days 0 hours 0 min 17 sec 

Total time                  ....      17.118 sec
Sum of individual times     ....      16.360 sec  ( 95.6%)

Fock matrix formation       ....      14.491 sec  ( 84.7%)
  Split-RI-J                ....       0.931 sec  (  6.4% of F)
  Chain of spheres X        ....      10.217 sec  ( 70.5% of F)
  XC integration            ....       1.726 sec  ( 11.9% of F)
    Basis function eval.    ....       0.150 sec  (  8.7% of XC)
    Density eval.           ....       0.318 sec  ( 18.4% of XC)
    XC-Functional eval.     ....       0.086 sec  (  5.0% of XC)
    XC-Potential eval.      ....       0.116 sec  (  6.7% of XC)
Diagonalization             ....       0.026 sec  (  0.2%)
Density matrix formation    ....       0.012 sec  (  0.1%)
Population analysis         ....       0.054 sec  (  0.3%)
Initial guess               ....       0.046 sec  (  0.3%)
Orbital Transformation      ....       0.000 sec  (  0.0%)
Orbital Orthonormalization  ....       0.035 sec  (  0.2%)
DIIS solution               ....       0.011 sec  (  0.1%)
SOSCF solution              ....       0.123 sec  (  0.7%)
Grid generation             ....       1.598 sec  (  9.3%)

Maximum memory used throughout the entire SCF-calculation: 68.0 MB

-------------------------   --------------------
FINAL SINGLE POINT ENERGY      -990.264072080834
-------------------------   --------------------

                                *** OPTIMIZATION RUN DONE ***

                            ***************************************
                            *     ORCA property calculations      *
                            ***************************************

                                    ---------------------
                                    Active property flags
                                    ---------------------
   (+) Dipole Moment


------------------------------------------------------------------------------
                       ORCA ELECTRIC PROPERTIES CALCULATION
------------------------------------------------------------------------------

Dipole Moment Calculation                       ... on
Quadrupole Moment Calculation                   ... off
Polarizability Calculation                      ... off
GBWName                                         ... structure_opt.gbw
Electron density                                ... structure_opt.scfp
The origin for moment calculation is the CENTER OF MASS  = (-0.156568,  3.607169  3.393360)

-------------
DIPOLE MOMENT
-------------
                                X             Y             Z
Electronic contribution:    -11.22984     -23.98581       1.63581
Nuclear contribution   :      8.51739      15.35561       4.70481
                        -----------------------------------------
Total Dipole Moment    :     -2.71246      -8.63020       6.34062
                        -----------------------------------------
Magnitude (a.u.)       :     11.04723
Magnitude (Debye)      :     28.07982



--------------------
Rotational spectrum 
--------------------
 
Rotational constants in cm-1:     0.029150     0.006500     0.006018 
Rotational constants in MHz :   873.887001   194.878476   180.404592 

 Dipole components along the rotational axes: 
x,y,z [a.u.] :   -10.457573    -3.000377     1.917838 
x,y,z [Debye]:   -26.581038    -7.626351     4.874757 

 

Timings for individual modules:

Sum of individual times         ...     1214.932 sec (=  20.249 min)
GTO integral calculation        ...       73.410 sec (=   1.223 min)   6.0 %
SCF iterations                  ...      931.449 sec (=  15.524 min)  76.7 %
SCF Gradient evaluation         ...      208.070 sec (=   3.468 min)  17.1 %
Geometry relaxation             ...        2.003 sec (=   0.033 min)   0.2 %
                             ****ORCA TERMINATED NORMALLY****
TOTAL RUN TIME: 0 days 0 hours 21 minutes 34 seconds 246 msec
