
                                 *****************
                                 * O   R   C   A *
                                 *****************

                                            #,                                       
                                            ###                                      
                                            ####                                     
                                            #####                                    
                                            ######                                   
                                           ########,                                 
                                     ,,################,,,,,                         
                               ,,#################################,,                 
                          ,,##########################################,,             
                       ,#########################################, ''#####,          
                    ,#############################################,,   '####,        
                  ,##################################################,,,,####,       
                ,###########''''           ''''###############################       
              ,#####''   ,,,,##########,,,,          '''####'''          '####       
            ,##' ,,,,###########################,,,                        '##       
           ' ,,###''''                  '''############,,,                           
         ,,##''                                '''############,,,,        ,,,,,,###''
      ,#''                                            '''#######################'''  
     '                                                          ''''####''''         
             ,#######,   #######,   ,#######,      ##                                
            ,#'     '#,  ##    ##  ,#'     '#,    #''#        ######   ,####,        
            ##       ##  ##   ,#'  ##            #'  '#       #        #'  '#        
            ##       ##  #######   ##           ,######,      #####,   #    #        
            '#,     ,#'  ##    ##  '#,     ,#' ,#      #,         ##   #,  ,#        
             '#######'   ##     ##  '#######'  #'      '#     #####' # '####'        



                  #######################################################
                  #                        -***-                        #
                  #          Department of theory and spectroscopy      #
                  #    Directorship and core code : Frank Neese         #
                  #        Max Planck Institute fuer Kohlenforschung    #
                  #                Kaiser Wilhelm Platz 1               #
                  #                 D-45470 Muelheim/Ruhr               #
                  #                      Germany                        #
                  #                                                     #
                  #                  All rights reserved                #
                  #                        -***-                        #
                  #######################################################


                         Program Version 5.0.4 -  RELEASE  -


 With contributions from (in alphabetic order):
   Daniel Aravena         : Magnetic Suceptibility
   Michael Atanasov       : Ab Initio Ligand Field Theory (pilot matlab implementation)
   Alexander A. Auer      : GIAO ZORA, VPT2 properties, NMR spectrum
   Ute Becker             : Parallelization
   Giovanni Bistoni       : ED, misc. LED, open-shell LED, HFLD
   Martin Brehm           : Molecular dynamics
   Dmytro Bykov           : SCF Hessian
   Vijay G. Chilkuri      : MRCI spin determinant printing, contributions to CSF-ICE
   Dipayan Datta          : RHF DLPNO-CCSD density
   Achintya Kumar Dutta   : EOM-CC, STEOM-CC
   Dmitry Ganyushin       : Spin-Orbit,Spin-Spin,Magnetic field MRCI
   Miquel Garcia          : C-PCM and meta-GGA Hessian, CC/C-PCM, Gaussian charge scheme
   Yang Guo               : DLPNO-NEVPT2, F12-NEVPT2, CIM, IAO-localization
   Andreas Hansen         : Spin unrestricted coupled pair/coupled cluster methods
   Benjamin Helmich-Paris : MC-RPA, TRAH-SCF, COSX integrals
   Lee Huntington         : MR-EOM, pCC
   Robert Izsak           : Overlap fitted RIJCOSX, COSX-SCS-MP3, EOM
   Marcus Kettner         : VPT2
   Christian Kollmar      : KDIIS, OOCD, Brueckner-CCSD(T), CCSD density, CASPT2, CASPT2-K
   Simone Kossmann        : Meta GGA functionals, TD-DFT gradient, OOMP2, MP2 Hessian
   Martin Krupicka        : Initial AUTO-CI
   Lucas Lang             : DCDCAS
   Marvin Lechner         : AUTO-CI (C++ implementation), FIC-MRCC
   Dagmar Lenk            : GEPOL surface, SMD
   Dimitrios Liakos       : Extrapolation schemes; Compound Job, initial MDCI parallelization
   Dimitrios Manganas     : Further ROCIS development; embedding schemes
   Dimitrios Pantazis     : SARC Basis sets
   Anastasios Papadopoulos: AUTO-CI, single reference methods and gradients
   Taras Petrenko         : DFT Hessian,TD-DFT gradient, ASA, ECA, R-Raman, ABS, FL, XAS/XES, NRVS
   Peter Pinski           : DLPNO-MP2, DLPNO-MP2 Gradient
   Christoph Reimann      : Effective Core Potentials
   Marius Retegan         : Local ZFS, SOC
   Christoph Riplinger    : Optimizer, TS searches, QM/MM, DLPNO-CCSD(T), (RO)-DLPNO pert. Triples
   Tobias Risthaus        : Range-separated hybrids, TD-DFT gradient, RPA, STAB
   Michael Roemelt        : Original ROCIS implementation
   Masaaki Saitow         : Open-shell DLPNO-CCSD energy and density
   Barbara Sandhoefer     : DKH picture change effects
   Avijit Sen             : IP-ROCIS
   Kantharuban Sivalingam : CASSCF convergence, NEVPT2, FIC-MRCI
   Bernardo de Souza      : ESD, SOC TD-DFT
   Georgi Stoychev        : AutoAux, RI-MP2 NMR, DLPNO-MP2 response
   Willem Van den Heuvel  : Paramagnetic NMR
   Boris Wezisla          : Elementary symmetry handling
   Frank Wennmohs         : Technical directorship


 We gratefully acknowledge several colleagues who have allowed us to
 interface, adapt or use parts of their codes:
   Stefan Grimme, W. Hujo, H. Kruse, P. Pracht,  : VdW corrections, initial TS optimization,
                  C. Bannwarth, S. Ehlert          DFT functionals, gCP, sTDA/sTD-DF
   Ed Valeev, F. Pavosevic, A. Kumar             : LibInt (2-el integral package), F12 methods
   Garnet Chan, S. Sharma, J. Yang, R. Olivares  : DMRG
   Ulf Ekstrom                                   : XCFun DFT Library
   Mihaly Kallay                                 : mrcc  (arbitrary order and MRCC methods)
   Jiri Pittner, Ondrej Demel                    : Mk-CCSD
   Frank Weinhold                                : gennbo (NPA and NBO analysis)
   Christopher J. Cramer and Donald G. Truhlar   : smd solvation model
   Lars Goerigk                                  : TD-DFT with DH, B97 family of functionals
   V. Asgeirsson, H. Jonsson                     : NEB implementation
   FAccTs GmbH                                   : IRC, NEB, NEB-TS, DLPNO-Multilevel, CI-OPT
                                                   MM, QMMM, 2- and 3-layer-ONIOM, Crystal-QMMM,
                                                   LR-CPCM, SF, NACMEs, symmetry and pop. for TD-DFT,
                                                   nearIR, NL-DFT gradient (VV10), updates on ESD,
                                                   ML-optimized integration grids
   S Lehtola, MJT Oliveira, MAL Marques          : LibXC Library
   Liviu Ungur et al                             : ANISO software


 Your calculation uses the libint2 library for the computation of 2-el integrals
 For citations please refer to: http://libint.valeyev.net

 Your ORCA version has been built with support for libXC version: 5.1.0
 For citations please refer to: https://tddft.org/programs/libxc/

 This ORCA versions uses:
   CBLAS   interface :  Fast vector & matrix operations
   LAPACKE interface :  Fast linear algebra routines
   SCALAPACK package :  Parallel linear algebra routines
   Shared memory     :  Shared parallel matrices
   BLAS/LAPACK       :  OpenBLAS 0.3.15  USE64BITINT DYNAMIC_ARCH NO_AFFINITY SkylakeX SINGLE_THREADED
        Core in use  :  SkylakeX
   Copyright (c) 2011-2014, The OpenBLAS Project




***************************************
The coordinates will be read from file: reactants.xyz
***************************************


Your calculation utilizes the SMD solvation module
Please cite in your paper:
A.V. Marenich, C.J. Cramer, D.G. Truhlar J. Phys. Chem. B, 113, (2009), 6378 

XCFun DFT library Copyright 2009-2010 Ulf Ekstrom and contributors.
See http://admol.org/xcfun for more information.
This is free software; see the source code for copying conditions.
There is ABSOLUTELY NO WARRANTY; not even for MERCHANTABILITY or FITNESS FOR A PARTICULAR PURPOSE.
For details see the documentation.
Scientific users of this library should cite U. Ekstrom, L. Visscher, R. Bast, A. J. Thorvaldsen and K. Ruud;
J.Chem.Theor.Comp. 2010, DOI: 10.1021/ct100117s
XCFun Version 0.99 

================================================================================

----- Orbital basis set information -----
Your calculation utilizes the basis: 6-311++G**
   H, Li - Ne  : R. Krishnan, J. S. Binkley, R. Seeger and J. A. Pople, J. Chem. Phys. 72, 650 (1980).
   Na - Ar     : A. D. McLean and G. S. Chandler J. Chem. Phys. 72, 5639, (1980).
   K  - Ca     : J.-P. Blaudeau, M. P. McGrath, L. A. Curtiss and L. Radom, J. Chem. Phys. 107, 5016 (1997).
   Ga - Kr     : L. A. Curtiss, M. P. McGrath, J.-P. Blandeau, N. E. Davis, R. C. Binning and L. Radom, J. Chem. Phys. 103, 6104 (1995).
   Pol./Diff.
   H, Li - Cl  : T. Clark, J. Chandrasekhar and P. v. R. Schleyer, J. Comp. Chem. 4, 294 (1983).
   H - Ne      : M. J. Frisch, J. A. Pople and J. S. Binkley, J. Chem. Phys. 80, 3265 (1984).

----- AuxJ basis set information -----
Your calculation utilizes the auxiliary basis: def2/J
   F. Weigend, Phys. Chem. Chem. Phys. 8, 1057 (2006).

================================================================================
                                        WARNINGS
                       Please study these warnings very carefully!
================================================================================


WARNING: Geometry Optimization
  ===> : Switching off AutoStart
         For restart on a previous wavefunction, please use MOREAD

INFO   : the flag for use of the SHARK integral package has been found!

================================================================================
                                       INPUT FILE
================================================================================
NAME = structure_opt.inp
|  1> !wb97x 6-311++G** OPT CPCM(WATER)
|  2> %maxcore  3500
|  3> %pal
|  4> nprocs 24
|  5> end
|  6> %cpcm
|  7> smd true
|  8> SMDsolvent "water"
|  9> end
| 10> %geom
| 11> ConstrainFragments {1} end
| 12> ConstrainFragments {4} end
| 13> ConnectFragments
| 14> { 1 2 C 5 7 }
| 15> { 1 2 C 0 9 }
| 16> { 2 3 C 13 5 }
| 17> { 3 4 C 13 17 }
| 18> end
| 19> end
| 20> * XYZfile -1 1 reactants.xyz
| 21> %geom
| 22> Fragments
| 23> 1 {0:5} end
| 24> 2 {6:12} end
| 25> 3 {13:16} end
| 26> 4 {17} end
| 27> end
| 28> end
| 29> 
| 30>                          ****END OF INPUT****
================================================================================

                       *****************************
                       * Geometry Optimization Run *
                       *****************************

Geometry optimization settings:
Update method            Update   .... BFGS
Choice of coordinates    CoordSys .... Z-matrix Internals
Initial Hessian          InHess   .... Almoef's Model

Convergence Tolerances:
Energy Change            TolE     ....  5.0000e-06 Eh
Max. Gradient            TolMAXG  ....  3.0000e-04 Eh/bohr
RMS Gradient             TolRMSG  ....  1.0000e-04 Eh/bohr
Max. Displacement        TolMAXD  ....  4.0000e-03 bohr
RMS Displacement         TolRMSD  ....  2.0000e-03 bohr
Strict Convergence                ....  False
------------------------------------------------------------------------------
                        ORCA OPTIMIZATION COORDINATE SETUP
------------------------------------------------------------------------------

The optimization will be done in new redundant internal coordinates
Making redundant internal coordinates   ...  (new redundants) done
Evaluating the initial hessian          ...  (Almloef) done
Evaluating the coordinates              ...  done
Calculating the B-matrix                .... done
Calculating the G-matrix                .... done
Diagonalizing the G-matrix              .... done
Imposing constraints:
 Iter   0:  RMS(Cart)=    0.0000000000 RMS(Int)=    0.0000000000
CONVERGED
Small eigenvalue found = 1.191e-02
Small eigenvalue found = 1.934e-02
The first mode is                       ....   72
The number of degrees of freedom        ....   48
Storing new coordinates                 .... done

    -----------------------------------------------------------------
                    Redundant Internal Coordinates


    -----------------------------------------------------------------
         Definition                    Initial Value    Approx d2E/dq
    -----------------------------------------------------------------
      1. B(N   1,C   0)                  1.3611         0.622347   
      2. B(C   2,N   1)                  1.3582         0.628875   
      3. B(C   3,C   2)                  1.3949         0.613658   
      4. B(C   4,C   3)                  1.3934         0.616971   
      5. B(C   5,C   0)                  1.4122         0.575774   
      6. B(C   5,C   4)                  1.4061         0.588917   
      7. B(O   7,C   5)                  2.3435         0.016853 C 
      8. B(O   7,N   6)                  1.2480         0.844503   
      9. B(O   8,N   6)                  1.3769         0.525866   
     10. B(F   9,C   0)                  1.3500         0.602260 C 
     11. B(F   9,N   6)                  2.8678         0.002044   
     12. B(F   9,O   7)                  2.5821         0.005837   
     13. B(H  11,H  10)                  2.4818         0.000415   
     14. B(H  12,O   8)                  2.5152         0.001717   
     15. B(H  12,H  11)                  2.4663         0.000439   
     16. B(H  12,N   6)                  2.7029         0.000861   
     17. B(C  13,O   7)                  7.9774         0.000000 C 
     18. B(H  14,C  13)                  1.0939         0.354994   
     19. B(H  15,C  13)                  1.0932         0.355868   
     20. B(H  16,C  13)                  1.0935         0.355548   
     21. B(S  17,C  13)                  1.8032         0.369230 C 
     22. A(N   1,C   0,C   5)          120.1571         0.425830   
     23. A(N   1,C   0,F   9)          118.6704         0.424592 C 
     24. A(C   5,C   0,F   9)          121.1725         0.421471 C 
     25. A(C   0,N   1,C   2)          121.9524         0.429796   
     26. A(N   1,C   2,C   3)          120.0262         0.431531   
     27. A(C   2,C   3,C   4)          119.3498         0.432882   
     28. A(C   3,C   4,C   5)          120.4718         0.429694   
     29. A(C   0,C   5,O   7)           94.5313         0.237820 C 
     30. A(C   0,C   5,C   4)          118.0425         0.424407   
     31. A(C   4,C   5,O   7)          147.4261         0.238582 C 
     32. A(O   7,N   6,F   9)           64.2090         0.186619   
     33. A(O   8,N   6,H  12)           67.2752         0.152046   
     34. A(O   7,N   6,H  12)          174.2234         0.159181   
     35. A(F   9,N   6,H  12)          110.0144         0.106848   
     36. A(O   7,N   6,O   8)          118.5014         0.433822   
     37. A(N   6,O   7,F   9)           89.9947         0.212791   
     38. A(C   5,O   7,C  13)          100.0524         0.089613   
     39. A(C   5,O   7,N   6)           31.7456         0.248611 C 
     40. A(C   5,O   7,F   9)           58.2491         0.140475 C 
     41. A(N   6,O   7,C  13)           95.3789         0.090474 C 
     42. A(F   9,O   7,C  13)          100.3534         0.089475 C 
     43. A(N   6,O   8,H  12)           82.3972         0.162696   
     44. A(N   6,F   9,O   7)           25.7962         0.120482   
     45. A(C   0,F   9,O   7)           86.0471         0.203997 C 
     46. A(C   0,F   9,N   6)           60.2509         0.179684 C 
     47. A(H  10,H  11,H  12)          119.7063         0.095112   
     48. A(N   6,H  12,O   8)           30.3275         0.103999   
     49. A(N   6,H  12,H  11)          126.7169         0.097913   
     50. A(O   8,H  12,H  11)          157.0445         0.099419   
     51. A(H  14,C  13,H  16)          108.8896         0.289610   
     52. A(H  15,C  13,H  16)          109.0743         0.289721   
     53. A(O   7,C  13,S  17)           17.3227         0.090330   
     54. A(H  16,C  13,S  17)          109.8939         0.339451 C 
     55. A(O   7,C  13,H  15)          124.3312         0.090066 C 
     56. A(O   7,C  13,H  16)          109.4848         0.090066 C 
     57. A(H  14,C  13,S  17)          109.9720         0.339362 C 
     58. A(H  15,C  13,S  17)          109.9915         0.339502 C 
     59. A(O   7,C  13,H  14)           94.5396         0.090066 C 
     60. A(H  14,C  13,H  15)          108.9931         0.289650   
     61. D(C   2,N   1,C   0,C   5)     -0.1041         0.028432   
     62. D(C   2,N   1,C   0,F   9)    179.9112         0.028432 C 
     63. D(C   3,C   2,N   1,C   0)      0.1066         0.025783   
     64. D(C   4,C   3,C   2,N   1)     -0.0956         0.020965   
     65. D(C   5,C   4,C   3,C   2)      0.0854         0.021202   
     66. D(O   7,C   5,C   0,N   1)    179.9933         0.022761 C 
     67. D(O   7,C   5,C   4,C   3)   -179.9036         0.021656 C 
     68. D(O   7,C   5,C   0,F   9)     -0.0223         0.022761 C 
     69. D(C   4,C   5,C   0,N   1)      0.0896         0.022761   
     70. D(C   4,C   5,C   0,F   9)   -179.9260         0.022761 C 
     71. D(C   0,C   5,C   4,C   3)     -0.0818         0.021656   
     72. D(F   9,O   7,C   5,C   0)      0.0117         0.001519 C 
     73. D(F   9,O   7,C   5,C   4)    179.8539         0.001519 C 
     74. D(C  13,O   7,N   6,F   9)   -100.3991         0.085936 C 
     75. D(C  13,O   7,C   5,C   0)    -96.0120         0.001519   
     76. D(C  13,O   7,C   5,C   4)     83.8302         0.001519   
     77. D(N   6,O   7,C   5,C   4)     -0.1099         0.001519 C 
     78. D(C  13,O   7,N   6,O   8)     79.5940         0.085936 C 
     79. D(F   9,O   7,N   6,H  12)      0.1568         0.085936   
     80. D(C   5,O   7,N   6,O   8)   -179.9761         0.085936 C 
     81. D(C   5,O   7,N   6,H  12)      0.1876         0.085936 C 
     82. D(F   9,O   7,N   6,O   8)    179.9932         0.085936   
     83. D(C   5,O   7,N   6,F   9)      0.0308         0.085936 C 
     84. D(N   6,O   7,C   5,C   0)   -179.9521         0.001519 C 
     85. D(C  13,O   7,N   6,H  12)   -100.2423         0.085936 C 
     86. D(H  12,O   8,N   6,O   7)   -179.9821         0.025649   
     87. D(O   7,F   9,N   6,H  12)   -179.9832         0.001500   
     88. D(N   6,F   9,C   0,C   5)      0.0236         0.032536 C 
     89. D(O   7,F   9,C   0,N   1)   -179.9952         0.032536 C 
     90. D(N   6,F   9,C   0,N   1)   -179.9918         0.032536 C 
     91. D(O   7,F   9,C   0,C   5)      0.0202         0.032536 C 
     92. D(C   0,F   9,N   6,O   7)   -179.9922         0.001500 C 
     93. D(O   7,F   9,O   8,H  12)   -179.9897         0.001500   
     94. D(N   6,F   9,O   7,C   5)     -0.0190         0.001503 C 
     95. D(N   6,F   9,O   7,C  13)     95.4673         0.001503 C 
     96. D(C   0,F   9,O   7,N   6)      0.0068         0.001503 C 
     97. D(C   0,F   9,O   7,C   5)     -0.0123         0.001503 C 
     98. D(C   0,F   9,N   6,H  12)      0.0246         0.001500 C 
     99. D(C   0,F   9,O   7,C  13)     95.4741         0.001503   
    100. D(C   0,F   9,O   8,H  12)      0.0232         0.001500 C 
    101. D(O   8,H  12,N   6,O   7)    179.8441         0.001501   
    102. D(N   6,H  12,H  11,H  10)      0.0466         0.001502   
    103. D(H  11,H  12,N   6,O   7)     -0.1748         0.001501   
    104. D(H  11,H  12,N   6,O   8)    179.9811         0.001501   
    105. D(H  11,H  12,N   6,F   9)     -0.0245         0.001501   
    106. D(O   8,H  12,N   6,F   9)    179.9943         0.001501   
    107. D(H  11,H  12,O   8,N   6)     -0.0388         0.001502   
    108. D(O   8,H  12,H  11,H  10)      0.0710         0.001502   
    109. D(H  14,C  13,O   7,N   6)   -105.0998         0.001500 C 
    110. D(S  17,C  13,O   7,F   9)     10.2597         0.001500   
    111. D(H  14,C  13,O   7,C   5)   -136.8033         0.001500   
    112. D(H  15,C  13,O   7,N   6)    138.1836         0.001500 C 
    113. D(H  15,C  13,O   7,F   9)     47.2033         0.001500 C 
    114. D(H  15,C  13,O   7,C   5)    106.4801         0.001500   
    115. D(H  16,C  13,O   7,N   6)      6.7754         0.001500 C 
    116. D(H  16,C  13,O   7,F   9)    -84.2048         0.001500 C 
    117. D(H  16,C  13,O   7,C   5)    -24.9281         0.001500   
    118. D(H  14,C  13,O   7,F   9)    163.9199         0.001500 C 
    119. D(S  17,C  13,O   7,N   6)    101.2400         0.001500   
    120. D(S  17,C  13,O   7,C   5)     69.5365         0.001500   
    -----------------------------------------------------------------

Number of atoms                         .... 18
Number of degrees of freedom            .... 120

         *************************************************************
         *                GEOMETRY OPTIMIZATION CYCLE   1            *
         *************************************************************
---------------------------------
CARTESIAN COORDINATES (ANGSTROEM)
---------------------------------
  C      0.000000    0.000000    1.820000
  N      1.178000   -0.196000    2.473000
  C      1.255000   -0.207000    3.829000
  C      0.105000   -0.016000    4.595000
  C     -1.116000    0.187000    3.955000
  C     -1.192000    0.198000    2.551000
  N     -2.456000    0.409000    1.893000
  O     -2.541000    0.423000    0.648000
  O     -3.602000    0.600000    2.632000
  F      0.000000    0.000000    0.470000
  H      2.209000   -0.366000    4.313000
  H      0.163000   -0.026000    5.676000
  H     -2.005000    0.335000    4.557000
  C     -2.720000    8.372000    0.000000
  H     -3.791000    8.417000   -0.218000
  H     -2.178000    8.941000   -0.760000
  H     -2.539000    8.822000    0.980000
  S     -2.163000    6.657000    0.000000

----------------------------
CARTESIAN COORDINATES (A.U.)
----------------------------
  NO LB      ZA    FRAG     MASS         X           Y           Z
   0 C     6.0000    1    12.011    0.000000    0.000000    3.439302
   1 N     7.0000    1    14.007    2.226097   -0.370386    4.673293
   2 C     6.0000    1    12.011    2.371606   -0.391173    7.235761
   3 C     6.0000    1    12.011    0.198421   -0.030236    8.683292
   4 C     6.0000    1    12.011   -2.108934    0.353379    7.473867
   5 C     6.0000    1    12.011   -2.252554    0.374166    4.820691
   6 N     7.0000    2    14.007   -4.641167    0.772898    3.577252
   7 O     8.0000    2    15.999   -4.801794    0.799354    1.224543
   8 O     8.0000    2    15.999   -6.806794    1.133836    4.973759
   9 F     9.0000    2    18.998    0.000000    0.000000    0.888171
  10 H     1.0000    2     1.008    4.174405   -0.691640    8.150389
  11 H     1.0000    2     1.008    0.308025   -0.049133   10.726086
  12 H     1.0000    2     1.008   -3.788901    0.633058    8.611482
  13 C     6.0000    3    12.011   -5.140055   15.820787    0.000000
  14 H     1.0000    3     1.008   -7.163952   15.905825   -0.411960
  15 H     1.0000    3     1.008   -4.115824   16.896041   -1.436192
  16 H     1.0000    3     1.008   -4.798015   16.671164    1.851932
  17 S    16.0000    4    32.060   -4.087478   12.579907    0.000000

----------------------------------------------
CARTESIAN COORDINATES OF FRAGMENTS (ANGSTROEM)
----------------------------------------------

 FRAGMENT 1 
  C     0.000000    0.000000    1.820000
  N     1.178000   -0.196000    2.473000
  C     1.255000   -0.207000    3.829000
  C     0.105000   -0.016000    4.595000
  C    -1.116000    0.187000    3.955000
  C    -1.192000    0.198000    2.551000

 FRAGMENT 2 
  N    -2.456000    0.409000    1.893000
  O    -2.541000    0.423000    0.648000
  O    -3.602000    0.600000    2.632000
  F     0.000000    0.000000    0.470000
  H     2.209000   -0.366000    4.313000
  H     0.163000   -0.026000    5.676000
  H    -2.005000    0.335000    4.557000

 FRAGMENT 3 
  C    -2.720000    8.372000    0.000000
  H    -3.791000    8.417000   -0.218000
  H    -2.178000    8.941000   -0.760000
  H    -2.539000    8.822000    0.980000

 FRAGMENT 4 
  S    -2.163000    6.657000    0.000000

--------------------------------
INTERNAL COORDINATES (ANGSTROEM)
--------------------------------
 C      0   0   0     0.000000000000     0.00000000     0.00000000
 N      1   0   0     1.361069065110     0.00000000     0.00000000
 C      2   1   0     1.358228993948   121.95243626     0.00000000
 C      3   2   1     1.394896770374   120.02620694     0.10655554
 C      4   3   2     1.393431017309   119.34983770   359.90435571
 C      5   4   3     1.406098502951   120.47178172     0.08537773
 N      6   5   4     1.440548853736   120.30882193   180.03842131
 O      7   6   5     1.247976762604   121.13704526   179.93147861
 O      7   6   5     1.376923382037   120.36156660   359.90709941
 F      1   2   3     1.350000000000   118.67037638   179.91115691
 H      3   2   1     1.081504969938   119.86701156   179.98746005
 H      4   3   2     1.082601034546   120.19197482   179.89186186
 H      5   4   3     1.083803026384   118.91636700   180.02085854
 C      8   7   6     7.977377137882    95.37894691   259.57006987
 H     14   8   7     1.093887562778    94.53962449   254.90016686
 H     14   8   7     1.093217727628   124.33123382   138.18359203
 H     14   8   7     1.093462848020   109.48484709     6.77540808
 S     14   8   7     1.803184405434    17.32265585   101.23998176

---------------------------
INTERNAL COORDINATES (A.U.)
---------------------------
 C      0   0   0     0.000000000000     0.00000000     0.00000000
 N      1   0   0     2.572047782411     0.00000000     0.00000000
 C      2   1   0     2.566680825712   121.95243626     0.00000000
 C      3   2   1     2.635972881098   120.02620694     0.10655554
 C      4   3   2     2.633203009226   119.34983770   359.90435571
 C      5   4   3     2.657141087893   120.47178172     0.08537773
 N      6   5   4     2.722242816095   120.30882193   180.03842131
 O      7   6   5     2.358334302820   121.13704526   179.93147861
 O      7   6   5     2.602008099442   120.36156660   359.90709941
 F      1   2   3     2.551130280794   118.67037638   179.91115691
 H      3   2   1     2.043748205657   119.86701156   179.98746005
 H      4   3   2     2.045819467592   120.19197482   179.89186186
 H      5   4   3     2.048090902982   118.91636700   180.02085854
 C      8   7   6    15.075058057601    95.37894691   259.57006987
 H     14   8   7     2.067147914953    94.53962449   254.90016686
 H     14   8   7     2.065882109965   124.33123382   138.18359203
 H     14   8   7     2.066345320375   109.48484709     6.77540808
 S     14   8   7     3.407524695228    17.32265585   101.23998176

---------------------
BASIS SET INFORMATION
---------------------
There are 6 groups of distinct atoms

 Group   1 Type C   : 12s6p1d contracted to 5s4p1d pattern {63111/3111/1}
 Group   2 Type N   : 12s6p1d contracted to 5s4p1d pattern {63111/3111/1}
 Group   3 Type O   : 12s6p1d contracted to 5s4p1d pattern {63111/3111/1}
 Group   4 Type F   : 12s6p1d contracted to 5s4p1d pattern {63111/3111/1}
 Group   5 Type H   : 6s1p contracted to 4s1p pattern {3111/1}
 Group   6 Type S   : 14s10p1d contracted to 7s6p1d pattern {6311111/421111/1}

Atom   0C    basis set group =>   1
Atom   1N    basis set group =>   2
Atom   2C    basis set group =>   1
Atom   3C    basis set group =>   1
Atom   4C    basis set group =>   1
Atom   5C    basis set group =>   1
Atom   6N    basis set group =>   2
Atom   7O    basis set group =>   3
Atom   8O    basis set group =>   3
Atom   9F    basis set group =>   4
Atom  10H    basis set group =>   5
Atom  11H    basis set group =>   5
Atom  12H    basis set group =>   5
Atom  13C    basis set group =>   1
Atom  14H    basis set group =>   5
Atom  15H    basis set group =>   5
Atom  16H    basis set group =>   5
Atom  17S    basis set group =>   6
---------------------------------
AUXILIARY/J BASIS SET INFORMATION
---------------------------------
There are 6 groups of distinct atoms

 Group   1 Type C   : 12s5p4d2f1g contracted to 6s4p3d1f1g pattern {711111/2111/211/2/1}
 Group   2 Type N   : 12s5p4d2f1g contracted to 6s4p3d1f1g pattern {711111/2111/211/2/1}
 Group   3 Type O   : 12s5p4d2f1g contracted to 6s4p3d1f1g pattern {711111/2111/211/2/1}
 Group   4 Type F   : 12s5p4d2f1g contracted to 6s4p3d1f1g pattern {711111/2111/211/2/1}
 Group   5 Type H   : 5s2p1d contracted to 3s1p1d pattern {311/2/1}
 Group   6 Type S   : 14s5p5d2f1g contracted to 8s4p3d1f1g pattern {71111111/2111/311/2/1}

Atom   0C    basis set group =>   1
Atom   1N    basis set group =>   2
Atom   2C    basis set group =>   1
Atom   3C    basis set group =>   1
Atom   4C    basis set group =>   1
Atom   5C    basis set group =>   1
Atom   6N    basis set group =>   2
Atom   7O    basis set group =>   3
Atom   8O    basis set group =>   3
Atom   9F    basis set group =>   4
Atom  10H    basis set group =>   5
Atom  11H    basis set group =>   5
Atom  12H    basis set group =>   5
Atom  13C    basis set group =>   1
Atom  14H    basis set group =>   5
Atom  15H    basis set group =>   5
Atom  16H    basis set group =>   5
Atom  17S    basis set group =>   6


           ************************************************************
           *        Program running with 24 parallel MPI-processes    *
           *              working on a common directory               *
           ************************************************************
------------------------------------------------------------------------------
                           ORCA GTO INTEGRAL CALCULATION
                           -- RI-GTO INTEGRALS CHOSEN --
------------------------------------------------------------------------------
------------------------------------------------------------------------------
                   ___                                                        
                  /   \      - P O W E R E D   B Y -                         
                 /     \                                                     
                 |  |  |   _    _      __       _____    __    __             
                 |  |  |  | |  | |    /  \     |  _  \  |  |  /  |          
                  \  \/   | |  | |   /    \    | | | |  |  | /  /          
                 / \  \   | |__| |  /  /\  \   | |_| |  |  |/  /          
                |  |  |   |  __  | /  /__\  \  |    /   |      \           
                |  |  |   | |  | | |   __   |  |    \   |  |\   \          
                \     /   | |  | | |  |  |  |  | |\  \  |  | \   \       
                 \___/    |_|  |_| |__|  |__|  |_| \__\ |__|  \__/        
                                                                              
                      - O R C A' S   B I G   F R I E N D -                    
                                      &                                       
                       - I N T E G R A L  F E E D E R -                       
                                                                              
 v1 FN, 2020, v2 2021                                                         
------------------------------------------------------------------------------


Reading SHARK input file structure_opt.SHARKINP.tmp ... ok
----------------------
SHARK INTEGRAL PACKAGE
----------------------

Number of atoms                             ...     18
Number of basis functions                   ...    314
Number of shells                            ...    154
Maximum angular momentum                    ...      2
Integral batch strategy                     ... SHARK/LIBINT Hybrid
RI-J (if used) integral strategy            ... SPLIT-RIJ (Revised 2003 algorithm where possible)
Printlevel                                  ...      1
Contraction scheme used                     ... SEGMENTED contraction
Coulomb Range Separation                    ... NOT USED
Exchange Range Separation                   ... Long Range
   Mu parameter                             ...  0.300000
   Scaling (regular/separated)              ...  0.157706  0.842294
Finite Nucleus Model                        ... NOT USED
Auxiliary Coulomb fitting basis             ... AVAILABLE
   # of basis functions in Aux-J            ...    656
   # of shells in Aux-J                     ...    212
   Maximum angular momentum in Aux-J        ...      4
Auxiliary J/K fitting basis                 ... NOT available
Auxiliary Correlation fitting basis         ... NOT available
Auxiliary 'external' fitting basis          ... NOT available
Integral threshold                          ...     2.500000e-11
Primitive cut-off                           ...     2.500000e-12
Primitive pair pre-selection threshold      ...     2.500000e-12

Calculating pre-screening integrals         ... done (  0.0 sec) Dimension = 154
Organizing shell pair data                  ... done (  0.1 sec)
Shell pair information
Total number of shell pairs                 ...     11935
Shell pairs after pre-screening             ...      8771
Total number of primitive shell pairs       ...     38500
Primitive shell pairs kept                  ...     20112
          la=0 lb=0:   2683 shell pairs
          la=1 lb=0:   3607 shell pairs
          la=1 lb=1:   1248 shell pairs
          la=2 lb=0:    701 shell pairs
          la=2 lb=1:    480 shell pairs
          la=2 lb=2:     52 shell pairs

Calculating one electron integrals          ... done (  0.0 sec)
Calculating RI/J V-Matrix + Cholesky decomp.... done (  0.1 sec)
Calculating Nuclear repulsion               ... done (  0.0 sec) ENN=    672.330589021132 Eh

SHARK setup successfully completed in   0.5 seconds

Maximum memory used throughout the entire GTOINT-calculation: 17.5 MB


           ************************************************************
           *        Program running with 24 parallel MPI-processes    *
           *              working on a common directory               *
           ************************************************************
-------------------------------------------------------------------------------
                                 ORCA SCF
-------------------------------------------------------------------------------

------------
SCF SETTINGS
------------
Hamiltonian:
 Density Functional     Method          .... DFT(GTOs)
 Exchange Functional    Exchange        .... WB97X
 Correlation Functional Correlation     .... WB97X
 Gradients option       PostSCFGGA      .... off
 Hybrid DFT is turned on
   Fraction HF Exchange ScalHFX         ....  0.157706
   Scaling of DF-GGA-X  ScalDFX         ....  0.000000
   Scaling of DF-GGA-C  ScalDFC         ....  1.000000
   Scaling of DF-LDA-C  ScalLDAC        ....  1.000000
   Perturbative correction              ....  0.000000
   Density functional embedding theory  .... OFF
 Long-range corrected/Screened/Range-Separated Hybrid DFT is turned on
   Amount of maximum screened exact exchange              ....  0.842294
   Range separation parameter mu (erf(mu*r12)/r12)        ....  0.300000
 RI-approximation to the Coulomb term is turned on
   Number of AuxJ basis functions       .... 656
   RIJ-COSX (HFX calculated with COS-X)).... on


General Settings:
 Integral files         IntName         .... structure_opt
 Hartree-Fock type      HFTyp           .... RHF
 Total Charge           Charge          ....   -1
 Multiplicity           Mult            ....    1
 Number of Electrons    NEL             ....   98
 Basis Dimension        Dim             ....  314
 Nuclear Repulsion      ENuc            ....    672.3305890211 Eh

Convergence Acceleration:
 DIIS                   CNVDIIS         .... on
   Start iteration      DIISMaxIt       ....    12
   Startup error        DIISStart       ....  0.200000
   # of expansion vecs  DIISMaxEq       ....     5
   Bias factor          DIISBfac        ....   1.050
   Max. coefficient     DIISMaxC        ....  10.000
 Trust-Rad. Augm. Hess. CNVTRAH         .... auto
   Auto Start mean grad. ratio tolernc. ....  1.125000
   Auto Start start iteration           ....    20
   Auto Start num. interpolation iter.  ....    10
   Max. Number of Micro iterations      ....    16
   Max. Number of Macro iterations      .... Maxiter - #DIIS iter
   Number of Davidson start vectors     ....     2
   Converg. threshold I  (grad. norm)   ....   1.000e-05
   Converg. threshold II (energy diff.) ....   1.000e-08
   Grad. Scal. Fac. for Micro threshold ....   0.100
   Minimum threshold for Micro iter.    ....   0.010
   NR start threshold (gradient norm)   ....   0.001
   Initial trust radius                 ....   0.400
   Minimum AH scaling param. (alpha)    ....   1.000
   Maximum AH scaling param. (alpha)    .... 1000.000
   Orbital update algorithm             .... Taylor
   White noise on init. David. guess    .... on
   Maximum white noise                  ....   0.010
   Quad. conv. algorithm                .... NR
 SOSCF                  CNVSOSCF        .... on
   Start iteration      SOSCFMaxIt      ....   150
   Startup grad/error   SOSCFStart      ....  0.003300
 Level Shifting         CNVShift        .... on
   Level shift para.    LevelShift      ....    0.2500
   Turn off err/grad.   ShiftErr        ....    0.0010
 Zerner damping         CNVZerner       .... off
 Static damping         CNVDamp         .... on
   Fraction old density DampFac         ....    0.7000
   Max. Damping (<1)    DampMax         ....    0.9800
   Min. Damping (>=0)   DampMin         ....    0.0000
   Turn off err/grad.   DampErr         ....    0.1000
 Fernandez-Rico         CNVRico         .... off

SCF Procedure:
 Maximum # iterations   MaxIter         ....   125
 SCF integral mode      SCFMode         .... Direct
   Integral package                     .... SHARK and LIBINT hybrid scheme
 Reset frequency        DirectResetFreq ....    20
 Integral Threshold     Thresh          ....  2.500e-11 Eh
 Primitive CutOff       TCut            ....  2.500e-12 Eh

Convergence Tolerance:
 Convergence Check Mode ConvCheckMode   .... Total+1el-Energy
 Convergence forced     ConvForced      .... 0
 Energy Change          TolE            ....  1.000e-08 Eh
 1-El. energy change                    ....  1.000e-05 Eh
 Orbital Gradient       TolG            ....  1.000e-05
 Orbital Rotation angle TolX            ....  1.000e-05
 DIIS Error             TolErr          ....  5.000e-07


Diagonalization of the overlap matrix:
Smallest eigenvalue                        ... 4.159e-06
Time for diagonalization                   ...    0.054 sec
Threshold for overlap eigenvalues          ... 1.000e-08
Number of eigenvalues below threshold      ... 0
Time for construction of square roots      ...    0.019 sec
Total time needed                          ...    0.075 sec

Time for model grid setup =    0.181 sec

------------------------------
INITIAL GUESS: MODEL POTENTIAL
------------------------------
Loading Hartree-Fock densities                     ... done
Calculating cut-offs                               ... done
Initializing the effective Hamiltonian             ... done
Setting up the integral package (SHARK)            ... done
Starting the Coulomb interaction                   ... done (   0.1 sec)
Reading the grid                                   ... done
Mapping shells                                     ... done
Starting the XC term evaluation                    ... done (   0.0 sec)
  promolecular density results
     # of electrons  =     96.995576227
     EX              =    -96.552301106
     EC              =     -3.327192145
     EX+EC           =    -99.879493251
Transforming the Hamiltonian                       ... done (   0.0 sec)
Diagonalizing the Hamiltonian                      ... done (   0.0 sec)
Back transforming the eigenvectors                 ... done (   0.0 sec)
Now organizing SCF variables                       ... done
                      ------------------
                      INITIAL GUESS DONE (   0.4 sec)
                      ------------------
-------------------
DFT GRID GENERATION
-------------------

General Integration Accuracy     IntAcc      ... 4.388
Radial Grid Type                 RadialGrid  ... OptM3 with GC (2021)
Angular Grid (max. ang.)         AngularGrid ... 4 (Lebedev-302)
Angular grid pruning method      GridPruning ... 4 (adaptive)
Weight generation scheme         WeightScheme... Becke
Basis function cutoff            BFCut       ... 1.0000e-11
Integration weight cutoff        WCut        ... 1.0000e-14
Angular grids for H and He will be reduced by one unit
Partially contracted basis set               ... off
Rotationally invariant grid construction     ... off

Total number of grid points                  ...    98124
Total number of batches                      ...     1542
Average number of points per batch           ...       63
Average number of grid points per atom       ...     5451
Time for grid setup =    0.846 sec

--------------------
COSX GRID GENERATION
--------------------

GRIDX 1
-------
General Integration Accuracy     IntAcc      ... 3.816
Radial Grid Type                 RadialGrid  ... OptM3 with GC (2021)
Angular Grid (max. ang.)         AngularGrid ... 1 (Lebedev-50)
Angular grid pruning method      GridPruning ... 4 (adaptive)
Weight generation scheme         WeightScheme... Becke
Basis function cutoff            BFCut       ... 1.0000e-11
Integration weight cutoff        WCut        ... 1.0000e-14
Angular grids for H and He will be reduced by one unit
Partially contracted basis set               ... on
Rotationally invariant grid construction     ... off

Total number of grid points                  ...    12267
Total number of batches                      ...      203
Average number of points per batch           ...       60
Average number of grid points per atom       ...      682
UseSFitting                                  ... on

GRIDX 2
-------
General Integration Accuracy     IntAcc      ... 4.020
Radial Grid Type                 RadialGrid  ... OptM3 with GC (2021)
Angular Grid (max. ang.)         AngularGrid ... 2 (Lebedev-110)
Angular grid pruning method      GridPruning ... 4 (adaptive)
Weight generation scheme         WeightScheme... Becke
Basis function cutoff            BFCut       ... 1.0000e-11
Integration weight cutoff        WCut        ... 1.0000e-14
Angular grids for H and He will be reduced by one unit
Partially contracted basis set               ... on
Rotationally invariant grid construction     ... off

Total number of grid points                  ...    31142
Total number of batches                      ...      495
Average number of points per batch           ...       62
Average number of grid points per atom       ...     1730
UseSFitting                                  ... on

GRIDX 3
-------
General Integration Accuracy     IntAcc      ... 4.338
Radial Grid Type                 RadialGrid  ... OptM3 with GC (2021)
Angular Grid (max. ang.)         AngularGrid ... 3 (Lebedev-194)
Angular grid pruning method      GridPruning ... 4 (adaptive)
Weight generation scheme         WeightScheme... Becke
Basis function cutoff            BFCut       ... 1.0000e-11
Integration weight cutoff        WCut        ... 1.0000e-14
Angular grids for H and He will be reduced by one unit
Partially contracted basis set               ... on
Rotationally invariant grid construction     ... off

Total number of grid points                  ...    69239
Total number of batches                      ...     1091
Average number of points per batch           ...       63
Average number of grid points per atom       ...     3847
UseSFitting                                  ... on

Time for X-Grid setup             =    1.177 sec


--------------------
CPCM SOLVATION MODEL
--------------------
CPCM parameters:
  Epsilon                                         ...      78.3550
  Refrac                                          ...       1.3328
  Rsolv                                           ...       1.3000
  Surface type                                    ... GAUSSIAN VDW
  Epsilon function type                           ...         CPCM
Solvent:                                     ... WATER
SMD-CDS solvent descriptors:
  Soln                                       ...    1.3328
  Soln25                                     ...    1.3323
  Sola                                       ...    0.0000
  Solb                                       ...    0.0000
  Solg                                       ...    0.0000
  Solc                                       ...    0.0000
  Solh                                       ...    0.0000
Radii:
 Radius for C  used is    3.4960 Bohr (=   1.8500 Ang.)
 Radius for N  used is    3.5716 Bohr (=   1.8900 Ang.)
 Radius for O  used is    2.8724 Bohr (=   1.5200 Ang.)
 Radius for F  used is    3.2692 Bohr (=   1.7300 Ang.)
 Radius for H  used is    2.2677 Bohr (=   1.2000 Ang.)
 Radius for S  used is    4.7054 Bohr (=   2.4900 Ang.)
Calculating surface                               ...        done! (  0.0s)
GEPOL surface points                              ...         1157
GEPOL Volume                                      ...    1364.9371
GEPOL Surface-area                                ...     848.4445
Calculating surface distance matrix               ...        done! (  0.0s)
Performing Cholesky decomposition & store         ...        done! (  0.1s)
Overall time for CPCM initialization              ...                 0.1s
--------------
SCF ITERATIONS
--------------
ITER       Energy         Delta-E        Max-DP      RMS-DP      [F,P]     Damp
               ***  Starting incremental Fock matrix formation  ***
  0   -989.8658489121   0.000000000000 0.34290001  0.00342136  0.2373479 0.7000
  1   -990.0280847116  -0.162235799486 0.29004323  0.00258125  0.1192445 0.7000
                               ***Turning on DIIS***
  2   -990.1005338812  -0.072449169672 1.80151539  0.01002916  0.0640113 0.0000
  3   -990.2245882883  -0.124054407124 0.84483156  0.00446206  0.0550075 0.0000
  4   -990.2437366867  -0.019148398345 0.29226691  0.00153339  0.0124236 0.0000
  5   -990.2449117755  -0.001175088766 0.15390841  0.00083373  0.0061416 0.0000
                      *** Initiating the SOSCF procedure ***
                           *** Shutting down DIIS ***
                      *** Re-Reading the Fockian *** 
                      *** Removing any level shift *** 
ITER      Energy       Delta-E        Grad      Rot      Max-DP    RMS-DP
  6   -990.24514268  -0.0002309006  0.001494  0.001494  0.045406  0.000268
               *** Restarting incremental Fock matrix formation ***
  7   -990.24523589  -0.0000932132  0.000978  0.002411  0.020781  0.000222
  8   -990.24527557  -0.0000396819  0.000390  0.002915  0.017357  0.000205
  9   -990.24528158  -0.0000060119  0.000688  0.000723  0.009831  0.000102
 10   -990.24528852  -0.0000069363  0.000113  0.000223  0.002392  0.000030
 11   -990.24528859  -0.0000000684  0.000092  0.000126  0.005123  0.000027
 12   -990.24528895  -0.0000003618  0.000014  0.000040  0.003388  0.000021
 13   -990.24528895  -0.0000000048  0.000007  0.000031  0.010176  0.000062
 14   -990.24528896  -0.0000000066  0.000005  0.000013  0.004274  0.000032
                  ***Gradient check signals convergence***
              ***Rediagonalizing the Fockian in SOSCF/NRSCF***

               *****************************************************
               *                     SUCCESS                       *
               *           SCF CONVERGED AFTER  15 CYCLES          *
               *****************************************************

Old exchange energy                            =    -28.432740354 Eh
New exchange energy                            =    -28.432746154 Eh
Exchange energy change after final integration =     -0.000005800 Eh
Total energy after final integration           =   -990.245294766 Eh
Final COS-X integration done in                =     3.442 sec

SMD CDS free energy correction energy :                 5.87302     Kcal/mol
Total Energy after SMD CDS correction =              -990.235935512 Eh

----------------
TOTAL SCF ENERGY
----------------

Total Energy       :         -990.23593551 Eh          -26945.68970 eV

Components:
Nuclear Repulsion  :          672.33058902 Eh           18295.04543 eV
Electronic Energy  :        -1662.56652453 Eh          -45240.73513 eV
One Electron Energy:        -2703.94422782 Eh          -73578.06308 eV
Two Electron Energy:         1041.37770329 Eh           28337.32795 eV
Max COSX asymmetry :            0.00000239 Eh               0.00006 eV
CPCM Dielectric    :           -0.13592710 Eh              -3.69876 eV
SMD CDS (Gcds)     :            0.00935925 Eh               0.25468 eV

Virial components:
Potential Energy   :        -1977.46834931 Eh          -53809.64941 eV
Kinetic Energy     :          987.23241380 Eh           26863.95972 eV
Virial Ratio       :            2.00304237


DFT components:
N(Alpha)           :       48.999762195685 electrons
N(Beta)            :       48.999762195685 electrons
N(Total)           :       97.999524391369 electrons
E(XC)              :      -73.338161961052 Eh       
DFET-embed. en.    :        0.000000000000 Eh       
CPCM Solvation Model Properties:
Surface-charge          :            0.94552665
Charge-correction       :           -0.00551386 Eh              -0.15004 eV
Free-energy (cav+disp)  :            0.00935925 Eh               0.25468 eV

---------------
SCF CONVERGENCE
---------------

  Last Energy change         ...   -5.5061e-09  Tolerance :   1.0000e-08
  Last MAX-Density change    ...    1.5543e-15  Tolerance :   1.0000e-07
  Last RMS-Density change    ...    3.3274e-17  Tolerance :   5.0000e-09
  Last Orbital Gradient      ...    1.9356e-06  Tolerance :   1.0000e-05
  Last Orbital Rotation      ...    1.8117e-06  Tolerance :   1.0000e-05

             **** THE GBW FILE WAS UPDATED (structure_opt.gbw) ****
             **** DENSITY structure_opt.scfp WAS UPDATED ****
             **** ENERGY FILE WAS UPDATED (structure_opt.en.tmp) ****
             **** THE GBW FILE WAS UPDATED (structure_opt.gbw) ****
             **** DENSITY structure_opt.scfp WAS UPDATED ****
----------------
ORBITAL ENERGIES
----------------

  NO   OCC          E(Eh)            E(eV) 
   0   2.0000     -88.720025     -2414.1946 
   1   2.0000     -24.793364      -674.6617 
   2   2.0000     -19.275562      -524.5147 
   3   2.0000     -19.243868      -523.6523 
   4   2.0000     -14.669778      -399.1849 
   5   2.0000     -14.435627      -392.8134 
   6   2.0000     -10.437734      -284.0252 
   7   2.0000     -10.364182      -282.0237 
   8   2.0000     -10.338276      -281.3188 
   9   2.0000     -10.321225      -280.8548 
  10   2.0000     -10.290569      -280.0206 
  11   2.0000     -10.235832      -278.5311 
  12   2.0000      -7.915905      -215.4027 
  13   2.0000      -5.879056      -159.9773 
  14   2.0000      -5.871657      -159.7759 
  15   2.0000      -5.871649      -159.7757 
  16   2.0000      -1.396397       -37.9979 
  17   2.0000      -1.348173       -36.6857 
  18   2.0000      -1.151432       -31.3321 
  19   2.0000      -1.109334       -30.1865 
  20   2.0000      -1.008425       -27.4406 
  21   2.0000      -0.943465       -25.6730 
  22   2.0000      -0.874029       -23.7835 
  23   2.0000      -0.836037       -22.7497 
  24   2.0000      -0.796708       -21.6795 
  25   2.0000      -0.769223       -20.9316 
  26   2.0000      -0.706020       -19.2118 
  27   2.0000      -0.686563       -18.6823 
  28   2.0000      -0.669410       -18.2156 
  29   2.0000      -0.665049       -18.0969 
  30   2.0000      -0.661699       -18.0057 
  31   2.0000      -0.633260       -17.2319 
  32   2.0000      -0.620388       -16.8816 
  33   2.0000      -0.615309       -16.7434 
  34   2.0000      -0.563856       -15.3433 
  35   2.0000      -0.537169       -14.6171 
  36   2.0000      -0.528006       -14.3678 
  37   2.0000      -0.527985       -14.3672 
  38   2.0000      -0.494364       -13.4523 
  39   2.0000      -0.493947       -13.4410 
  40   2.0000      -0.456050       -12.4098 
  41   2.0000      -0.432434       -11.7671 
  42   2.0000      -0.421610       -11.4726 
  43   2.0000      -0.416482       -11.3331 
  44   2.0000      -0.408110       -11.1052 
  45   2.0000      -0.390644       -10.6300 
  46   2.0000      -0.384989       -10.4761 
  47   2.0000      -0.258848        -7.0436 
  48   2.0000      -0.258797        -7.0422 
  49   0.0000      -0.064766        -1.7624 
  50   0.0000       0.022630         0.6158 
  51   0.0000       0.053019         1.4427 
  52   0.0000       0.055467         1.5093 
  53   0.0000       0.058416         1.5896 
  54   0.0000       0.068028         1.8511 
  55   0.0000       0.073346         1.9958 
  56   0.0000       0.087674         2.3857 
  57   0.0000       0.090203         2.4545 
  58   0.0000       0.091322         2.4850 
  59   0.0000       0.099953         2.7199 
  60   0.0000       0.112784         3.0690 
  61   0.0000       0.115971         3.1557 
  62   0.0000       0.125066         3.4032 
  63   0.0000       0.129317         3.5189 
  64   0.0000       0.136341         3.7100 
  65   0.0000       0.141571         3.8523 
  66   0.0000       0.144289         3.9263 
  67   0.0000       0.155150         4.2218 
  68   0.0000       0.163424         4.4470 
  69   0.0000       0.166825         4.5395 
  70   0.0000       0.169307         4.6071 
  71   0.0000       0.173224         4.7137 
  72   0.0000       0.176540         4.8039 
  73   0.0000       0.179906         4.8955 
  74   0.0000       0.180679         4.9165 
  75   0.0000       0.182205         4.9581 
  76   0.0000       0.192060         5.2262 
  77   0.0000       0.194363         5.2889 
  78   0.0000       0.196445         5.3455 
  79   0.0000       0.204979         5.5778 
  80   0.0000       0.207392         5.6434 
  81   0.0000       0.216841         5.9005 
  82   0.0000       0.222260         6.0480 
  83   0.0000       0.226609         6.1663 
  84   0.0000       0.235058         6.3962 
  85   0.0000       0.236229         6.4281 
  86   0.0000       0.249357         6.7854 
  87   0.0000       0.256403         6.9771 
  88   0.0000       0.261988         7.1291 
  89   0.0000       0.270836         7.3698 
  90   0.0000       0.272353         7.4111 
  91   0.0000       0.278157         7.5690 
  92   0.0000       0.278625         7.5818 
  93   0.0000       0.282763         7.6944 
  94   0.0000       0.286759         7.8031 
  95   0.0000       0.297042         8.0829 
  96   0.0000       0.304921         8.2973 
  97   0.0000       0.312294         8.4980 
  98   0.0000       0.319996         8.7075 
  99   0.0000       0.323376         8.7995 
 100   0.0000       0.328706         8.9445 
 101   0.0000       0.341244         9.2857 
 102   0.0000       0.349124         9.5001 
 103   0.0000       0.351320         9.5599 
 104   0.0000       0.360450         9.8083 
 105   0.0000       0.363156         9.8820 
 106   0.0000       0.372998        10.1498 
 107   0.0000       0.374575        10.1927 
 108   0.0000       0.396765        10.7965 
 109   0.0000       0.403930        10.9915 
 110   0.0000       0.408714        11.1217 
 111   0.0000       0.415305        11.3010 
 112   0.0000       0.423611        11.5270 
 113   0.0000       0.429556        11.6888 
 114   0.0000       0.438360        11.9284 
 115   0.0000       0.451712        12.2917 
 116   0.0000       0.460071        12.5192 
 117   0.0000       0.462945        12.5974 
 118   0.0000       0.469777        12.7833 
 119   0.0000       0.476776        12.9737 
 120   0.0000       0.491985        13.3876 
 121   0.0000       0.510787        13.8992 
 122   0.0000       0.519827        14.1452 
 123   0.0000       0.528617        14.3844 
 124   0.0000       0.530164        14.4265 
 125   0.0000       0.550136        14.9700 
 126   0.0000       0.582392        15.8477 
 127   0.0000       0.612499        16.6670 
 128   0.0000       0.617483        16.8026 
 129   0.0000       0.618719        16.8362 
 130   0.0000       0.634389        17.2626 
 131   0.0000       0.639026        17.3888 
 132   0.0000       0.658339        17.9143 
 133   0.0000       0.664497        18.0819 
 134   0.0000       0.669079        18.2066 
 135   0.0000       0.701155        19.0794 
 136   0.0000       0.701951        19.1011 
 137   0.0000       0.726938        19.7810 
 138   0.0000       0.747069        20.3288 
 139   0.0000       0.770820        20.9751 
 140   0.0000       0.770957        20.9788 
 141   0.0000       0.781632        21.2693 
 142   0.0000       0.811839        22.0913 
 143   0.0000       0.826965        22.5029 
 144   0.0000       0.838070        22.8050 
 145   0.0000       0.849951        23.1283 
 146   0.0000       0.853132        23.2149 
 147   0.0000       0.871482        23.7142 
 148   0.0000       0.902877        24.5685 
 149   0.0000       0.910099        24.7650 
 150   0.0000       0.920568        25.0499 
 151   0.0000       0.933889        25.4124 
 152   0.0000       0.953966        25.9587 
 153   0.0000       0.954629        25.9768 
 154   0.0000       0.960768        26.1438 
 155   0.0000       0.972569        26.4650 
 156   0.0000       0.977164        26.5900 
 157   0.0000       0.987981        26.8843 
 158   0.0000       1.004338        27.3294 
 159   0.0000       1.004405        27.3312 
 160   0.0000       1.007684        27.4205 
 161   0.0000       1.034516        28.1506 
 162   0.0000       1.043510        28.3954 
 163   0.0000       1.061924        28.8964 
 164   0.0000       1.074211        29.2308 
 165   0.0000       1.080756        29.4089 
 166   0.0000       1.084512        29.5111 
 167   0.0000       1.141797        31.0699 
 168   0.0000       1.149878        31.2898 
 169   0.0000       1.152527        31.3618 
 170   0.0000       1.173036        31.9199 
 171   0.0000       1.190814        32.4037 
 172   0.0000       1.200745        32.6739 
 173   0.0000       1.213193        33.0127 
 174   0.0000       1.250542        34.0290 
 175   0.0000       1.261590        34.3296 
 176   0.0000       1.277322        34.7577 
 177   0.0000       1.279398        34.8142 
 178   0.0000       1.279511        34.8173 
 179   0.0000       1.293482        35.1974 
 180   0.0000       1.299346        35.3570 
 181   0.0000       1.357049        36.9272 
 182   0.0000       1.396280        37.9947 
 183   0.0000       1.406563        38.2745 
 184   0.0000       1.471256        40.0349 
 185   0.0000       1.508585        41.0507 
 186   0.0000       1.546664        42.0869 
 187   0.0000       1.586170        43.1619 
 188   0.0000       1.589733        43.2588 
 189   0.0000       1.589844        43.2619 
 190   0.0000       1.617997        44.0279 
 191   0.0000       1.631899        44.4062 
 192   0.0000       1.655500        45.0484 
 193   0.0000       1.657631        45.1064 
 194   0.0000       1.693295        46.0769 
 195   0.0000       1.693995        46.0960 
 196   0.0000       1.704889        46.3924 
 197   0.0000       1.715699        46.6865 
 198   0.0000       1.748939        47.5910 
 199   0.0000       1.762027        47.9472 
 200   0.0000       1.787287        48.6346 
 201   0.0000       1.809507        49.2392 
 202   0.0000       1.810460        49.2651 
 203   0.0000       1.813373        49.3444 
 204   0.0000       1.843389        50.1612 
 205   0.0000       1.848135        50.2903 
 206   0.0000       1.869154        50.8623 
 207   0.0000       1.910615        51.9905 
 208   0.0000       1.934416        52.6381 
 209   0.0000       1.947766        53.0014 
 210   0.0000       1.970526        53.6207 
 211   0.0000       1.972806        53.6828 
 212   0.0000       1.990846        54.1737 
 213   0.0000       2.010834        54.7176 
 214   0.0000       2.032343        55.3029 
 215   0.0000       2.045198        55.6527 
 216   0.0000       2.053314        55.8735 
 217   0.0000       2.110433        57.4278 
 218   0.0000       2.141078        58.2617 
 219   0.0000       2.148056        58.4516 
 220   0.0000       2.168295        59.0023 
 221   0.0000       2.173133        59.1339 
 222   0.0000       2.176666        59.2301 
 223   0.0000       2.206487        60.0416 
 224   0.0000       2.292790        62.3900 
 225   0.0000       2.324128        63.2427 
 226   0.0000       2.332017        63.4574 
 227   0.0000       2.332820        63.4792 
 228   0.0000       2.399134        65.2838 
 229   0.0000       2.429458        66.1089 
 230   0.0000       2.494724        67.8849 
 231   0.0000       2.563610        69.7594 
 232   0.0000       2.590081        70.4797 
 233   0.0000       2.595939        70.6391 
 234   0.0000       2.604984        70.8852 
 235   0.0000       2.627326        71.4932 
 236   0.0000       2.659662        72.3731 
 237   0.0000       2.660477        72.3953 
 238   0.0000       2.673696        72.7550 
 239   0.0000       2.673854        72.7593 
 240   0.0000       2.692168        73.2576 
 241   0.0000       2.773206        75.4628 
 242   0.0000       2.784936        75.7820 
 243   0.0000       2.828935        76.9792 
 244   0.0000       2.840112        77.2834 
 245   0.0000       2.858109        77.7731 
 246   0.0000       2.867729        78.0349 
 247   0.0000       2.883705        78.4696 
 248   0.0000       2.895880        78.8009 
 249   0.0000       2.901866        78.9638 
 250   0.0000       2.933523        79.8252 
 251   0.0000       2.937522        79.9340 
 252   0.0000       2.960620        80.5626 
 253   0.0000       2.977050        81.0097 
 254   0.0000       2.986695        81.2721 
 255   0.0000       3.001833        81.6840 
 256   0.0000       3.009230        81.8853 
 257   0.0000       3.098600        84.3172 
 258   0.0000       3.153493        85.8109 
 259   0.0000       3.188681        86.7684 
 260   0.0000       3.268693        88.9457 
 261   0.0000       3.307490        90.0014 
 262   0.0000       3.307987        90.0149 
 263   0.0000       3.340649        90.9037 
 264   0.0000       3.368385        91.6584 
 265   0.0000       3.454239        93.9946 
 266   0.0000       3.497623        95.1752 
 267   0.0000       3.558716        96.8376 
 268   0.0000       3.593577        97.7862 
 269   0.0000       3.681015       100.1655 
 270   0.0000       3.703728       100.7836 
 271   0.0000       3.753326       102.1332 
 272   0.0000       3.853418       104.8568 
 273   0.0000       3.887305       105.7789 
 274   0.0000       3.888923       105.8230 
 275   0.0000       3.891466       105.8922 
 276   0.0000       3.905128       106.2639 
 277   0.0000       3.924698       106.7965 
 278   0.0000       4.014028       109.2273 
 279   0.0000       4.059603       110.4674 
 280   0.0000       4.119951       112.1096 
 281   0.0000       4.143717       112.7563 
 282   0.0000       4.169068       113.4461 
 283   0.0000       4.405644       119.8837 
 284   0.0000       4.478036       121.8535 
 285   0.0000       4.503678       122.5513 
 286   0.0000       4.760866       129.5498 
 287   0.0000       4.942865       134.5022 
 288   0.0000       5.074856       138.0939 
 289   0.0000       5.105764       138.9349 
 290   0.0000       5.192884       141.3055 
 291   0.0000       5.220295       142.0515 
 292   0.0000       5.314607       144.6178 
 293   0.0000       5.699371       155.0878 
 294   0.0000       6.130351       166.8153 
 295   0.0000       6.410335       174.4341 
 296   0.0000       6.540104       177.9653 
 297   0.0000       6.841955       186.1791 
 298   0.0000       7.978697       217.1114 
 299   0.0000      17.546324       477.4598 
 300   0.0000      17.548400       477.5162 
 301   0.0000      17.637493       479.9406 
 302   0.0000      23.650339       643.5584 
 303   0.0000      23.890404       650.0909 
 304   0.0000      23.984650       652.6555 
 305   0.0000      24.030198       653.8949 
 306   0.0000      24.071058       655.0068 
 307   0.0000      24.181248       658.0052 
 308   0.0000      35.375216       962.6086 
 309   0.0000      35.657129       970.2798 
 310   0.0000      49.900361      1357.8579 
 311   0.0000      49.963650      1359.5800 
 312   0.0000      66.792607      1817.5192 
 313   0.0000     188.967708      5142.0728 

--------------------
FRAGMENT INFORMATION
--------------------
Fragment  1:    0   1   2   3   4   5 
Fragment  2:    6   7   8   9  10  11  12 
Fragment  3:   13  14  15  16 
Fragment  4:   17 


                    ********************************
                    * MULLIKEN POPULATION ANALYSIS *
                    ********************************

-------------------------
MULLIKEN FRAGMENT CHARGES
-------------------------
 Fragment   0 :  -0.462923
 Fragment   1 :   0.463075
 Fragment   2 :  -0.027532
 Fragment   3 :  -0.972619
Sum of fragment charges:   -1.0000000

---------------------------------
MULLIKEN FRAGMENT OVERLAP CHARGES
---------------------------------
                  0          1          2          3    
      0      19.535143   0.549641  -0.000087  -0.000829
      1       0.549641  34.962499   0.000074   0.001649
      2      -0.000087   0.000074  11.655300  -0.688038
      3      -0.000829   0.001649  -0.688038  17.316229

-----------------------
MULLIKEN ATOMIC CHARGES
-----------------------
   0 C :   -0.000497
   1 N :   -0.203266
   2 C :   -0.296571
   3 C :   -0.254791
   4 C :    0.418014
   5 C :   -0.125813
   6 N :   -0.036763
   7 O :   -0.061821
   8 O :   -0.237170
   9 F :   -0.103326
  10 H :    0.295803
  11 H :    0.281291
  12 H :    0.325061
  13 C :   -0.407684
  14 H :    0.126698
  15 H :    0.126640
  16 H :    0.126814
  17 S :   -0.972619
Sum of atomic charges:   -1.0000000

--------------------------------
MULLIKEN REDUCED ORBITAL CHARGES
--------------------------------
  0 C s       :     3.251493  s :     3.251493
      pz      :     0.677166  p :     2.588562
      px      :     0.968997
      py      :     0.942400
      dz2     :     0.052753  d :     0.160441
      dxz     :     0.048840
      dyz     :     0.028441
      dx2y2   :     0.013767
      dxy     :     0.016640
  1 N s       :     3.625454  s :     3.625454
      pz      :     1.141912  p :     3.547285
      px      :     1.241502
      py      :     1.163871
      dz2     :     0.008166  d :     0.030526
      dxz     :     0.007239
      dyz     :     0.004758
      dx2y2   :     0.005504
      dxy     :     0.004859
  2 C s       :     3.379045  s :     3.379045
      pz      :     0.811223  p :     2.833381
      px      :     1.167648
      py      :     0.854510
      dz2     :     0.023580  d :     0.084145
      dxz     :     0.032193
      dyz     :     0.014801
      dx2y2   :     0.007221
      dxy     :     0.006349
  3 C s       :     3.208145  s :     3.208145
      pz      :     1.156789  p :     2.993486
      px      :     0.869059
      py      :     0.967637
      dz2     :     0.015294  d :     0.053160
      dxz     :     0.017412
      dyz     :     0.005092
      dx2y2   :     0.008212
      dxy     :     0.007150
  4 C s       :     2.520660  s :     2.520660
      pz      :     0.910696  p :     3.004242
      px      :     1.243121
      py      :     0.850425
      dz2     :     0.016545  d :     0.057085
      dxz     :     0.015857
      dyz     :     0.010564
      dx2y2   :     0.007215
      dxy     :     0.006904
  5 C s       :     3.306146  s :     3.306146
      pz      :     1.136061  p :     2.746525
      px      :     0.490736
      py      :     1.119728
      dz2     :     0.013630  d :     0.073142
      dxz     :     0.029767
      dyz     :     0.010338
      dx2y2   :     0.011218
      dxy     :     0.008189
  6 N s       :     3.563059  s :     3.563059
      pz      :     1.052176  p :     3.364718
      px      :     1.211969
      py      :     1.100573
      dz2     :     0.027715  d :     0.108985
      dxz     :     0.039362
      dyz     :     0.023077
      dx2y2   :     0.008549
      dxy     :     0.010282
  7 O s       :     3.786232  s :     3.786232
      pz      :     1.028592  p :     4.256890
      px      :     1.828350
      py      :     1.399948
      dz2     :     0.009710  d :     0.018699
      dxz     :     0.003513
      dyz     :     0.005308
      dx2y2   :     0.000102
      dxy     :     0.000067
  8 O s       :     3.823563  s :     3.823563
      pz      :     1.624508  p :     4.401492
      px      :     1.218581
      py      :     1.558402
      dz2     :     0.001059  d :     0.012115
      dxz     :     0.004900
      dyz     :     0.000879
      dx2y2   :     0.003118
      dxy     :     0.002159
  9 F s       :     3.919032  s :     3.919032
      pz      :     1.389053  p :     5.178962
      px      :     1.915737
      py      :     1.874172
      dz2     :     0.003097  d :     0.005332
      dxz     :     0.000998
      dyz     :     0.001201
      dx2y2   :     0.000027
      dxy     :     0.000009
 10 H s       :     0.680297  s :     0.680297
      pz      :     0.005481  p :     0.023900
      px      :     0.014120
      py      :     0.004298
 11 H s       :     0.693746  s :     0.693746
      pz      :     0.016372  p :     0.024963
      px      :     0.003655
      py      :     0.004936
 12 H s       :     0.649416  s :     0.649416
      pz      :     0.007743  p :     0.025522
      px      :     0.013378
      py      :     0.004401
 13 C s       :     3.267897  s :     3.267897
      pz      :     1.060514  p :     3.087166
      px      :     1.051703
      py      :     0.974949
      dz2     :     0.009047  d :     0.052622
      dxz     :     0.005103
      dyz     :     0.015084
      dx2y2   :     0.014136
      dxy     :     0.009252
 14 H s       :     0.850591  s :     0.850591
      pz      :     0.005022  p :     0.022711
      px      :     0.013027
      py      :     0.004662
 15 H s       :     0.850624  s :     0.850624
      pz      :     0.008868  p :     0.022736
      px      :     0.006793
      py      :     0.007075
 16 H s       :     0.850461  s :     0.850461
      pz      :     0.011632  p :     0.022725
      px      :     0.004911
      py      :     0.006182
 17 S s       :     6.022219  s :     6.022219
      pz      :     3.995400  p :    10.918995
      px      :     3.893985
      py      :     3.029611
      dz2     :     0.005602  d :     0.031405
      dxz     :     0.000333
      dyz     :     0.004203
      dx2y2   :     0.012629
      dxy     :     0.008638


                     *******************************
                     * LOEWDIN POPULATION ANALYSIS *
                     *******************************

------------------------
LOEWDIN FRAGMENT CHARGES
------------------------
 Fragment   0 :   0.057332
 Fragment   1 :  -0.057409
 Fragment   2 :  -0.355316
 Fragment   3 :  -0.644608

----------------------------
LOEWDIN FRAGMENT BOND ORDERS
----------------------------
                  0          1          2          3    
      0      56.961587   6.779219   0.000069   0.000261
      1       6.779219  43.787673   0.000047   0.000238
      2       0.000069   0.000047  15.419535   1.742632
      3       0.000261   0.000238   1.742632  16.644608

----------------------
LOEWDIN ATOMIC CHARGES
----------------------
   0 C :    0.111451
   1 N :   -0.111889
   2 C :    0.077270
   3 C :   -0.033810
   4 C :    0.078069
   5 C :   -0.063759
   6 N :    0.241464
   7 O :   -0.153769
   8 O :   -0.338665
   9 F :   -0.078156
  10 H :    0.086997
  11 H :    0.084547
  12 H :    0.100173
  13 C :   -0.358529
  14 H :    0.001117
  15 H :    0.001100
  16 H :    0.000996
  17 S :   -0.644608

-------------------------------
LOEWDIN REDUCED ORBITAL CHARGES
-------------------------------
  0 C s       :     2.743714  s :     2.743714
      pz      :     0.849336  p :     2.815715
      px      :     1.080491
      py      :     0.885887
      dz2     :     0.112515  d :     0.329120
      dxz     :     0.100714
      dyz     :     0.050390
      dx2y2   :     0.033879
      dxy     :     0.031622
  1 N s       :     3.151610  s :     3.151610
      pz      :     1.301214  p :     3.903439
      px      :     1.416905
      py      :     1.185321
      dz2     :     0.017387  d :     0.056839
      dxz     :     0.015719
      dyz     :     0.007793
      dx2y2   :     0.009543
      dxy     :     0.006398
  2 C s       :     2.786883  s :     2.786883
      pz      :     1.032877  p :     2.954001
      px      :     1.096526
      py      :     0.824598
      dz2     :     0.060304  d :     0.181846
      dxz     :     0.069054
      dyz     :     0.027984
      dx2y2   :     0.014014
      dxy     :     0.010490
  3 C s       :     2.781236  s :     2.781236
      pz      :     1.081335  p :     3.128213
      px      :     1.092137
      py      :     0.954741
      dz2     :     0.034119  d :     0.124361
      dxz     :     0.045069
      dyz     :     0.008011
      dx2y2   :     0.022212
      dxy     :     0.014950
  4 C s       :     2.779278  s :     2.779278
      pz      :     1.065857  p :     3.014358
      px      :     1.108245
      py      :     0.840255
      dz2     :     0.040903  d :     0.128295
      dxz     :     0.039165
      dyz     :     0.021254
      dx2y2   :     0.015051
      dxy     :     0.011922
  5 C s       :     2.757992  s :     2.757992
      pz      :     1.088524  p :     3.125446
      px      :     0.957368
      py      :     1.079555
      dz2     :     0.039909  d :     0.180321
      dxz     :     0.071776
      dyz     :     0.019830
      dx2y2   :     0.031419
      dxy     :     0.017387
  6 N s       :     3.051906  s :     3.051906
      pz      :     1.206004  p :     3.500265
      px      :     1.215112
      py      :     1.079149
      dz2     :     0.060435  d :     0.206365
      dxz     :     0.076196
      dyz     :     0.035695
      dx2y2   :     0.017517
      dxy     :     0.016522
  7 O s       :     3.581041  s :     3.581041
      pz      :     1.283672  p :     4.540413
      px      :     1.838821
      py      :     1.417920
      dz2     :     0.020437  d :     0.032315
      dxz     :     0.005157
      dyz     :     0.006531
      dx2y2   :     0.000119
      dxy     :     0.000071
  8 O s       :     3.667299  s :     3.667299
      pz      :     1.709908  p :     4.650882
      px      :     1.369812
      py      :     1.571162
      dz2     :     0.001545  d :     0.020484
      dxz     :     0.009263
      dyz     :     0.001173
      dx2y2   :     0.005711
      dxy     :     0.002791
  9 F s       :     3.714964  s :     3.714964
      pz      :     1.535192  p :     5.355822
      px      :     1.934355
      py      :     1.886275
      dz2     :     0.004766  d :     0.007370
      dxz     :     0.001184
      dyz     :     0.001375
      dx2y2   :     0.000037
      dxy     :     0.000009
 10 H s       :     0.842607  s :     0.842607
      pz      :     0.016677  p :     0.070396
      px      :     0.042293
      py      :     0.011427
 11 H s       :     0.843005  s :     0.843005
      pz      :     0.047833  p :     0.072448
      px      :     0.011210
      py      :     0.013405
 12 H s       :     0.826598  s :     0.826598
      pz      :     0.023097  p :     0.073229
      px      :     0.038715
      py      :     0.011417
 13 C s       :     2.858275  s :     2.858275
      pz      :     1.118006  p :     3.393377
      px      :     1.121800
      py      :     1.153571
      dz2     :     0.018380  d :     0.106877
      dxz     :     0.009288
      dyz     :     0.030002
      dx2y2   :     0.030016
      dxy     :     0.019190
 14 H s       :     0.927180  s :     0.927180
      pz      :     0.014691  p :     0.071703
      px      :     0.042262
      py      :     0.014750
 15 H s       :     0.927078  s :     0.927078
      pz      :     0.027734  p :     0.071822
      px      :     0.020628
      py      :     0.023460
 16 H s       :     0.927214  s :     0.927214
      pz      :     0.037100  p :     0.071790
      px      :     0.014386
      py      :     0.020304
 17 S s       :     5.613703  s :     5.613703
      pz      :     3.936771  p :    10.993780
      px      :     3.858872
      py      :     3.198137
      dz2     :     0.006763  d :     0.037125
      dxz     :     0.000365
      dyz     :     0.004714
      dx2y2   :     0.015110
      dxy     :     0.010173


                      *****************************
                      * MAYER POPULATION ANALYSIS *
                      *****************************

  NA   - Mulliken gross atomic population
  ZA   - Total nuclear charge
  QA   - Mulliken gross atomic charge
  VA   - Mayer's total valence
  BVA  - Mayer's bonded valence
  FA   - Mayer's free valence

  ATOM       NA         ZA         QA         VA         BVA        FA
  0 C      6.0005     6.0000    -0.0005     4.3257     4.3257    -0.0000
  1 N      7.2033     7.0000    -0.2033     2.7015     2.7015    -0.0000
  2 C      6.2966     6.0000    -0.2966     3.9794     3.9794    -0.0000
  3 C      6.2548     6.0000    -0.2548     4.3361     4.3361    -0.0000
  4 C      5.5820     6.0000     0.4180     4.1836     4.1836    -0.0000
  5 C      6.1258     6.0000    -0.1258     3.4136     3.4136    -0.0000
  6 N      7.0368     7.0000    -0.0368     3.8797     3.8797    -0.0000
  7 O      8.0618     8.0000    -0.0618     2.2228     2.2228    -0.0000
  8 O      8.2372     8.0000    -0.2372     2.0009     2.0009    -0.0000
  9 F      9.1033     9.0000    -0.1033     0.9623     0.9623    -0.0000
 10 H      0.7042     1.0000     0.2958     0.8717     0.8717    -0.0000
 11 H      0.7187     1.0000     0.2813     0.9030     0.9030    -0.0000
 12 H      0.6749     1.0000     0.3251     0.8363     0.8363     0.0000
 13 C      6.4077     6.0000    -0.4077     3.5685     3.5685     0.0000
 14 H      0.8733     1.0000     0.1267     0.9420     0.9420     0.0000
 15 H      0.8734     1.0000     0.1266     0.9432     0.9432     0.0000
 16 H      0.8732     1.0000     0.1268     0.9418     0.9418     0.0000
 17 S     16.9726    16.0000    -0.9726     0.5933     0.5933    -0.0000

  Mayer bond orders larger than 0.100000
B(  0-C ,  1-N ) :   1.2871 B(  0-C ,  2-C ) :   0.1917 B(  0-C ,  3-C ) :   0.1493 
B(  0-C ,  4-C ) :   0.3317 B(  0-C ,  5-C ) :   1.1847 B(  0-C ,  6-N ) :  -0.1971 
B(  0-C ,  9-F ) :   1.3957 B(  1-N ,  2-C ) :   1.1833 B(  1-N ,  5-C ) :   0.1863 
B(  2-C ,  3-C ) :   1.5878 B(  2-C , 10-H ) :   0.8838 B(  3-C ,  4-C ) :   1.4768 
B(  3-C ,  8-O ) :   0.1348 B(  3-C , 11-H ) :   0.8443 B(  4-C ,  5-C ) :   1.6178 
[...]
 289   0.0000       5.127678       139.5312 
 290   0.0000       5.208678       141.7353 
 291   0.0000       5.282029       143.7313 
 292   0.0000       5.370451       146.1374 
 293   0.0000       5.849768       159.1803 
 294   0.0000       6.340260       172.5272 
 295   0.0000       6.419005       174.6700 
 296   0.0000       6.551153       178.2659 
 297   0.0000       6.863078       186.7539 
 298   0.0000       7.978725       217.1122 
 299   0.0000      17.546340       477.4602 
 300   0.0000      17.548339       477.5146 
 301   0.0000      17.637486       479.9404 
 302   0.0000      23.701904       644.9616 
 303   0.0000      23.954405       651.8325 
 304   0.0000      24.020726       653.6372 
 305   0.0000      24.030091       653.8920 
 306   0.0000      24.134523       656.7338 
 307   0.0000      24.245591       659.7561 
 308   0.0000      35.451445       964.6829 
 309   0.0000      35.736952       972.4519 
 310   0.0000      49.924167      1358.5056 
 311   0.0000      50.031067      1361.4146 
 312   0.0000      66.806392      1817.8943 
 313   0.0000     188.967737      5142.0735 

--------------------
FRAGMENT INFORMATION
--------------------
Fragment  1:    0   1   2   3   4   5 
Fragment  2:    6   7   8   9  10  11  12 
Fragment  3:   13  14  15  16 
Fragment  4:   17 


                    ********************************
                    * MULLIKEN POPULATION ANALYSIS *
                    ********************************

-------------------------
MULLIKEN FRAGMENT CHARGES
-------------------------
 Fragment   0 :  -0.498682
 Fragment   1 :   0.498808
 Fragment   2 :  -0.027532
 Fragment   3 :  -0.972594
Sum of fragment charges:   -1.0000000

---------------------------------
MULLIKEN FRAGMENT OVERLAP CHARGES
---------------------------------
                  0          1          2          3    
      0      16.851592   0.439560  -0.000052  -0.000756
      1       0.439560  35.041971   0.000042   0.001539
      2      -0.000052   0.000042  11.654864  -0.687089
      3      -0.000756   0.001539  -0.687089  17.315747

-----------------------
MULLIKEN ATOMIC CHARGES
-----------------------
   0 C :    0.030172
   1 N :   -0.194992
   2 C :   -0.280722
   3 C :   -0.328588
   4 C :    0.501844
   5 C :   -0.226396
   6 N :    0.024601
   7 O :   -0.172680
   8 O :   -0.116439
   9 F :   -0.120705
  10 H :    0.283731
  11 H :    0.278591
  12 H :    0.321708
  13 C :   -0.407689
  14 H :    0.126775
  15 H :    0.126618
  16 H :    0.126765
  17 S :   -0.972594
Sum of atomic charges:   -1.0000000

--------------------------------
MULLIKEN REDUCED ORBITAL CHARGES
--------------------------------
  0 C s       :     3.213817  s :     3.213817
      pz      :     0.670801  p :     2.586098
      px      :     0.968650
      py      :     0.946647
      dz2     :     0.057159  d :     0.169912
      dxz     :     0.050412
      dyz     :     0.029376
      dx2y2   :     0.014627
      dxy     :     0.018339
  1 N s       :     3.605338  s :     3.605338
      pz      :     1.150085  p :     3.555150
      px      :     1.251623
      py      :     1.153442
      dz2     :     0.008728  d :     0.034504
      dxz     :     0.008624
      dyz     :     0.005249
      dx2y2   :     0.006081
      dxy     :     0.005823
  2 C s       :     3.317213  s :     3.317213
      pz      :     0.824742  p :     2.874562
      px      :     1.176307
      py      :     0.873512
      dz2     :     0.025127  d :     0.088947
      dxz     :     0.033532
      dyz     :     0.015890
      dx2y2   :     0.007887
      dxy     :     0.006512
  3 C s       :     3.262842  s :     3.262842
      pz      :     1.156744  p :     3.010106
      px      :     0.883358
      py      :     0.970004
      dz2     :     0.015900  d :     0.055640
      dxz     :     0.018395
      dyz     :     0.005650
      dx2y2   :     0.008175
      dxy     :     0.007520
  4 C s       :     2.400646  s :     2.400646
      pz      :     0.940130  p :     3.037851
      px      :     1.243790
      py      :     0.853931
      dz2     :     0.017215  d :     0.059658
      dxz     :     0.016116
      dyz     :     0.011304
      dx2y2   :     0.007807
      dxy     :     0.007216
  5 C s       :     3.361472  s :     3.361472
      pz      :     1.157977  p :     2.791352
      px      :     0.509781
      py      :     1.123594
      dz2     :     0.013157  d :     0.073572
      dxz     :     0.030906
      dyz     :     0.010298
      dx2y2   :     0.011065
      dxy     :     0.008147
  6 N s       :     3.462509  s :     3.462509
      pz      :     1.034055  p :     3.374005
      px      :     1.232720
      py      :     1.107230
      dz2     :     0.038115  d :     0.138885
      dxz     :     0.045090
      dyz     :     0.029074
      dx2y2   :     0.011936
      dxy     :     0.014669
  7 O s       :     3.812121  s :     3.812121
      pz      :     1.025356  p :     4.342390
      px      :     1.839996
      py      :     1.477039
      dz2     :     0.009752  d :     0.018169
      dxz     :     0.003259
      dyz     :     0.005000
      dx2y2   :     0.000095
      dxy     :     0.000062
  8 O s       :     3.783224  s :     3.783224
      pz      :     1.549481  p :     4.313072
      px      :     1.331527
      py      :     1.432064
      dz2     :     0.002426  d :     0.020143
      dxz     :     0.007419
      dyz     :     0.002082
      dx2y2   :     0.004201
      dxy     :     0.004014
  9 F s       :     3.918288  s :     3.918288
      pz      :     1.399444  p :     5.197187
      px      :     1.918453
      py      :     1.879290
      dz2     :     0.003046  d :     0.005229
      dxz     :     0.000973
      dyz     :     0.001171
      dx2y2   :     0.000030
      dxy     :     0.000010
 10 H s       :     0.692979  s :     0.692979
      pz      :     0.004512  p :     0.023289
      px      :     0.014453
      py      :     0.004324
 11 H s       :     0.696220  s :     0.696220
      pz      :     0.016408  p :     0.025189
      px      :     0.003790
      py      :     0.004991
 12 H s       :     0.652445  s :     0.652445
      pz      :     0.007425  p :     0.025847
      px      :     0.013990
      py      :     0.004432
 13 C s       :     3.267904  s :     3.267904
      pz      :     1.060469  p :     3.087163
      px      :     1.051721
      py      :     0.974974
      dz2     :     0.009013  d :     0.052622
      dxz     :     0.005136
      dyz     :     0.015095
      dx2y2   :     0.014130
      dxy     :     0.009248
 14 H s       :     0.850503  s :     0.850503
      pz      :     0.005038  p :     0.022722
      px      :     0.013019
      py      :     0.004665
 15 H s       :     0.850656  s :     0.850656
      pz      :     0.008859  p :     0.022726
      px      :     0.006804
      py      :     0.007064
 16 H s       :     0.850515  s :     0.850515
      pz      :     0.011626  p :     0.022721
      px      :     0.004900
      py      :     0.006194
 17 S s       :     6.022279  s :     6.022279
      pz      :     3.995362  p :    10.918909
      px      :     3.893397
      py      :     3.030150
      dz2     :     0.005601  d :     0.031406
      dxz     :     0.000337
      dyz     :     0.004202
      dx2y2   :     0.012604
      dxy     :     0.008662


                     *******************************
                     * LOEWDIN POPULATION ANALYSIS *
                     *******************************

------------------------
LOEWDIN FRAGMENT CHARGES
------------------------
 Fragment   0 :   0.031212
 Fragment   1 :  -0.031285
 Fragment   2 :  -0.355331
 Fragment   3 :  -0.644596

----------------------------
LOEWDIN FRAGMENT BOND ORDERS
----------------------------
                  0          1          2          3    
      0      57.200443   6.725858   0.000069   0.000258
      1       6.725858  44.209008   0.000047   0.000249
      2       0.000069   0.000047  15.419512   1.742657
      3       0.000258   0.000249   1.742657  16.644596

----------------------
LOEWDIN ATOMIC CHARGES
----------------------
   0 C :    0.082198
   1 N :   -0.081963
   2 C :    0.056328
   3 C :   -0.034070
   4 C :    0.073207
   5 C :   -0.064488
   6 N :    0.202753
   7 O :   -0.219503
   8 O :   -0.194030
   9 F :   -0.088942
  10 H :    0.083353
  11 H :    0.085644
  12 H :    0.099438
  13 C :   -0.358556
  14 H :    0.001043
  15 H :    0.001164
  16 H :    0.001018
  17 S :   -0.644596

-------------------------------
LOEWDIN REDUCED ORBITAL CHARGES
-------------------------------
  0 C s       :     2.731131  s :     2.731131
      pz      :     0.851639  p :     2.836039
      px      :     1.095755
      py      :     0.888644
      dz2     :     0.121802  d :     0.350633
      dxz     :     0.104053
      dyz     :     0.052070
      dx2y2   :     0.037200
      dxy     :     0.035507
  1 N s       :     3.109033  s :     3.109033
      pz      :     1.300109  p :     3.907984
      px      :     1.434017
      py      :     1.173859
      dz2     :     0.018966  d :     0.064946
      dxz     :     0.018392
      dyz     :     0.009102
      dx2y2   :     0.010690
      dxy     :     0.007796
  2 C s       :     2.774350  s :     2.774350
      pz      :     1.042502  p :     2.975623
      px      :     1.092481
      py      :     0.840640
      dz2     :     0.064208  d :     0.193699
      dxz     :     0.072981
      dyz     :     0.030598
      dx2y2   :     0.015183
      dxy     :     0.010729
  3 C s       :     2.772475  s :     2.772475
      pz      :     1.079546  p :     3.132104
      px      :     1.096723
      py      :     0.955835
      dz2     :     0.035219  d :     0.129491
      dxz     :     0.047249
      dyz     :     0.008782
      dx2y2   :     0.022395
      dxy     :     0.015847
  4 C s       :     2.769245  s :     2.769245
      pz      :     1.074782  p :     3.022748
      px      :     1.105076
      py      :     0.842890
      dz2     :     0.042578  d :     0.134800
      dxz     :     0.040552
      dyz     :     0.022868
      dx2y2   :     0.016208
      dxy     :     0.012594
  5 C s       :     2.753252  s :     2.753252
      pz      :     1.090298  p :     3.129231
      px      :     0.958849
      py      :     1.080083
      dz2     :     0.039618  d :     0.182006
      dxz     :     0.074084
      dyz     :     0.020019
      dx2y2   :     0.030924
      dxy     :     0.017361
  6 N s       :     2.997733  s :     2.997733
      pz      :     1.219803  p :     3.530768
      px      :     1.230487
      py      :     1.080479
      dz2     :     0.080720  d :     0.268745
      dxz     :     0.092528
      dyz     :     0.045954
      dx2y2   :     0.025620
      dxy     :     0.023924
  7 O s       :     3.574292  s :     3.574292
      pz      :     1.275186  p :     4.613579
      px      :     1.847664
      py      :     1.490730
      dz2     :     0.020470  d :     0.031632
      dxz     :     0.004822
      dyz     :     0.006158
      dx2y2   :     0.000116
      dxy     :     0.000066
  8 O s       :     3.548617  s :     3.548617
      pz      :     1.673491  p :     4.610135
      px      :     1.487112
      py      :     1.449531
      dz2     :     0.003686  d :     0.035278
      dxz     :     0.015297
      dyz     :     0.002835
      dx2y2   :     0.008193
      dxy     :     0.005268
  9 F s       :     3.713799  s :     3.713799
      pz      :     1.539901  p :     5.367888
      px      :     1.937232
      py      :     1.890755
      dz2     :     0.004688  d :     0.007254
      dxz     :     0.001172
      dyz     :     0.001345
      dx2y2   :     0.000040
      dxy     :     0.000010
 10 H s       :     0.848049  s :     0.848049
      pz      :     0.014119  p :     0.068597
      px      :     0.042800
      py      :     0.011678
 11 H s       :     0.842185  s :     0.842185
      pz      :     0.047389  p :     0.072171
      px      :     0.011374
      py      :     0.013407
 12 H s       :     0.827113  s :     0.827113
      pz      :     0.021807  p :     0.073449
      px      :     0.040188
      py      :     0.011454
 13 C s       :     2.858306  s :     2.858306
      pz      :     1.117945  p :     3.393375
      px      :     1.121896
      py      :     1.153534
      dz2     :     0.018308  d :     0.106874
      dxz     :     0.009357
      dyz     :     0.030024
      dx2y2   :     0.029995
      dxy     :     0.019190
 14 H s       :     0.927200  s :     0.927200
      pz      :     0.014746  p :     0.071757
      px      :     0.042252
      py      :     0.014760
 15 H s       :     0.927058  s :     0.927058
      pz      :     0.027698  p :     0.071778
      px      :     0.020662
      py      :     0.023417
 16 H s       :     0.927217  s :     0.927217
      pz      :     0.037072  p :     0.071765
      px      :     0.014350
      py      :     0.020343
 17 S s       :     5.613704  s :     5.613704
      pz      :     3.936755  p :    10.993765
      px      :     3.858403
      py      :     3.198608
      dz2     :     0.006761  d :     0.037126
      dxz     :     0.000370
      dyz     :     0.004712
      dx2y2   :     0.015081
      dxy     :     0.010203


                      *****************************
                      * MAYER POPULATION ANALYSIS *
                      *****************************

  NA   - Mulliken gross atomic population
  ZA   - Total nuclear charge
  QA   - Mulliken gross atomic charge
  VA   - Mayer's total valence
  BVA  - Mayer's bonded valence
  FA   - Mayer's free valence

  ATOM       NA         ZA         QA         VA         BVA        FA
  0 C      5.9698     6.0000     0.0302     4.2435     4.2435     0.0000
  1 N      7.1950     7.0000    -0.1950     2.7272     2.7272    -0.0000
  2 C      6.2807     6.0000    -0.2807     4.0228     4.0228     0.0000
  3 C      6.3286     6.0000    -0.3286     4.4885     4.4885    -0.0000
  4 C      5.4982     6.0000     0.5018     4.0735     4.0735    -0.0000
  5 C      6.2264     6.0000    -0.2264     3.4394     3.4394    -0.0000
  6 N      6.9754     7.0000     0.0246     3.9714     3.9714    -0.0000
  7 O      8.1727     8.0000    -0.1727     2.1367     2.1367     0.0000
  8 O      8.1164     8.0000    -0.1164     2.2006     2.2006    -0.0000
  9 F      9.1207     9.0000    -0.1207     0.9243     0.9243    -0.0000
 10 H      0.7163     1.0000     0.2837     0.8744     0.8744     0.0000
 11 H      0.7214     1.0000     0.2786     0.9078     0.9078     0.0000
 12 H      0.6783     1.0000     0.3217     0.8378     0.8378    -0.0000
 13 C      6.4077     6.0000    -0.4077     3.5684     3.5684     0.0000
 14 H      0.8732     1.0000     0.1268     0.9420     0.9420    -0.0000
 15 H      0.8734     1.0000     0.1266     0.9432     0.9432     0.0000
 16 H      0.8732     1.0000     0.1268     0.9418     0.9418    -0.0000
 17 S     16.9726    16.0000    -0.9726     0.5932     0.5932    -0.0000

  Mayer bond orders larger than 0.100000
B(  0-C ,  1-N ) :   1.2918 B(  0-C ,  2-C ) :   0.1735 B(  0-C ,  3-C ) :   0.1790 
B(  0-C ,  4-C ) :   0.2816 B(  0-C ,  5-C ) :   1.2131 B(  0-C ,  6-N ) :  -0.1977 
B(  0-C ,  8-O ) :  -0.1151 B(  0-C ,  9-F ) :   1.3437 B(  1-N ,  2-C ) :   1.1705 
B(  1-N ,  5-C ) :   0.2061 B(  2-C ,  3-C ) :   1.6660 B(  2-C ,  5-C ) :   0.1065 
B(  2-C , 10-H ) :   0.8851 B(  3-C ,  4-C ) :   1.4004 B(  3-C ,  5-C ) :   0.1461 
B(  3-C ,  8-O ) :   0.1630 B(  3-C , 11-H ) :   0.8400 B(  4-C ,  5-C ) :   1.5787 
B(  4-C ,  8-O ) :   0.2471 B(  4-C ,  9-F ) :  -0.1269 B(  4-C , 12-H ) :   0.7211 
B(  5-C ,  6-N ) :   0.6437 B(  5-C ,  8-O ) :  -0.2009 B(  5-C ,  9-F ) :  -0.3192 
B(  5-C , 12-H ) :   0.1443 B(  6-N ,  7-O ) :   1.8276 B(  6-N ,  8-O ) :   1.8380 
B(  7-O ,  8-O ) :   0.2543 B( 13-C , 14-H ) :   0.9822 B( 13-C , 15-H ) :   0.9808 
B( 13-C , 16-H ) :   0.9827 B( 13-C , 17-S ) :   0.6230 

-------
TIMINGS
-------

Total SCF time: 0 days 0 hours 0 min 12 sec 

Total time                  ....      12.673 sec
Sum of individual times     ....      11.940 sec  ( 94.2%)

Fock matrix formation       ....      10.244 sec  ( 80.8%)
  Split-RI-J                ....       0.643 sec  (  6.3% of F)
  Chain of spheres X        ....       8.163 sec  ( 79.7% of F)
  XC integration            ....       0.500 sec  (  4.9% of F)
    Basis function eval.    ....       0.080 sec  ( 16.0% of XC)
    Density eval.           ....       0.108 sec  ( 21.5% of XC)
    XC-Functional eval.     ....       0.028 sec  (  5.7% of XC)
    XC-Potential eval.      ....       0.067 sec  ( 13.5% of XC)
Diagonalization             ....       0.027 sec  (  0.2%)
Density matrix formation    ....       0.009 sec  (  0.1%)
Population analysis         ....       0.093 sec  (  0.7%)
Initial guess               ....       0.040 sec  (  0.3%)
Orbital Transformation      ....       0.000 sec  (  0.0%)
Orbital Orthonormalization  ....       0.022 sec  (  0.2%)
DIIS solution               ....       0.011 sec  (  0.1%)
SOSCF solution              ....       0.060 sec  (  0.5%)
Grid generation             ....       1.455 sec  ( 11.5%)

Maximum memory used throughout the entire SCF-calculation: 68.3 MB

-------------------------   --------------------
FINAL SINGLE POINT ENERGY      -990.265237877842
-------------------------   --------------------

                                *** OPTIMIZATION RUN DONE ***

                            ***************************************
                            *     ORCA property calculations      *
                            ***************************************

                                    ---------------------
                                    Active property flags
                                    ---------------------
   (+) Dipole Moment


------------------------------------------------------------------------------
                       ORCA ELECTRIC PROPERTIES CALCULATION
------------------------------------------------------------------------------

Dipole Moment Calculation                       ... on
Quadrupole Moment Calculation                   ... off
Polarizability Calculation                      ... off
GBWName                                         ... structure_opt.gbw
Electron density                                ... structure_opt.scfp
The origin for moment calculation is the CENTER OF MASS  = (-2.361060,  3.608248  3.395768)

-------------
DIPOLE MOMENT
-------------
                                X             Y             Z
Electronic contribution:      4.65035     -23.96425       1.58708
Nuclear contribution   :     -1.84672      15.34350       4.69293
                        -----------------------------------------
Total Dipole Moment    :      2.80363      -8.62075       6.28001
                        -----------------------------------------
Magnitude (a.u.)       :     11.02798
Magnitude (Debye)      :     28.03089



--------------------
Rotational spectrum 
--------------------
 
Rotational constants in cm-1:     0.032646     0.007062     0.006811 
Rotational constants in MHz :   978.712361   211.722918   204.174893 

 Dipole components along the rotational axes: 
x,y,z [a.u.] :   -10.682798    -0.957496     2.564625 
x,y,z [Debye]:   -27.153514    -2.433760     6.518760 

 

Timings for individual modules:

Sum of individual times         ...     1248.488 sec (=  20.808 min)
GTO integral calculation        ...       64.901 sec (=   1.082 min)   5.2 %
SCF iterations                  ...      960.858 sec (=  16.014 min)  77.0 %
SCF Gradient evaluation         ...      220.831 sec (=   3.681 min)  17.7 %
Geometry relaxation             ...        1.898 sec (=   0.032 min)   0.2 %
                             ****ORCA TERMINATED NORMALLY****
TOTAL RUN TIME: 0 days 0 hours 22 minutes 6 seconds 861 msec
