
                                 *****************
                                 * O   R   C   A *
                                 *****************

                                            #,                                       
                                            ###                                      
                                            ####                                     
                                            #####                                    
                                            ######                                   
                                           ########,                                 
                                     ,,################,,,,,                         
                               ,,#################################,,                 
                          ,,##########################################,,             
                       ,#########################################, ''#####,          
                    ,#############################################,,   '####,        
                  ,##################################################,,,,####,       
                ,###########''''           ''''###############################       
              ,#####''   ,,,,##########,,,,          '''####'''          '####       
            ,##' ,,,,###########################,,,                        '##       
           ' ,,###''''                  '''############,,,                           
         ,,##''                                '''############,,,,        ,,,,,,###''
      ,#''                                            '''#######################'''  
     '                                                          ''''####''''         
             ,#######,   #######,   ,#######,      ##                                
            ,#'     '#,  ##    ##  ,#'     '#,    #''#        ######   ,####,        
            ##       ##  ##   ,#'  ##            #'  '#       #        #'  '#        
            ##       ##  #######   ##           ,######,      #####,   #    #        
            '#,     ,#'  ##    ##  '#,     ,#' ,#      #,         ##   #,  ,#        
             '#######'   ##     ##  '#######'  #'      '#     #####' # '####'        



                  #######################################################
                  #                        -***-                        #
                  #          Department of theory and spectroscopy      #
                  #    Directorship and core code : Frank Neese         #
                  #        Max Planck Institute fuer Kohlenforschung    #
                  #                Kaiser Wilhelm Platz 1               #
                  #                 D-45470 Muelheim/Ruhr               #
                  #                      Germany                        #
                  #                                                     #
                  #                  All rights reserved                #
                  #                        -***-                        #
                  #######################################################


                         Program Version 5.0.4 -  RELEASE  -


 With contributions from (in alphabetic order):
   Daniel Aravena         : Magnetic Suceptibility
   Michael Atanasov       : Ab Initio Ligand Field Theory (pilot matlab implementation)
   Alexander A. Auer      : GIAO ZORA, VPT2 properties, NMR spectrum
   Ute Becker             : Parallelization
   Giovanni Bistoni       : ED, misc. LED, open-shell LED, HFLD
   Martin Brehm           : Molecular dynamics
   Dmytro Bykov           : SCF Hessian
   Vijay G. Chilkuri      : MRCI spin determinant printing, contributions to CSF-ICE
   Dipayan Datta          : RHF DLPNO-CCSD density
   Achintya Kumar Dutta   : EOM-CC, STEOM-CC
   Dmitry Ganyushin       : Spin-Orbit,Spin-Spin,Magnetic field MRCI
   Miquel Garcia          : C-PCM and meta-GGA Hessian, CC/C-PCM, Gaussian charge scheme
   Yang Guo               : DLPNO-NEVPT2, F12-NEVPT2, CIM, IAO-localization
   Andreas Hansen         : Spin unrestricted coupled pair/coupled cluster methods
   Benjamin Helmich-Paris : MC-RPA, TRAH-SCF, COSX integrals
   Lee Huntington         : MR-EOM, pCC
   Robert Izsak           : Overlap fitted RIJCOSX, COSX-SCS-MP3, EOM
   Marcus Kettner         : VPT2
   Christian Kollmar      : KDIIS, OOCD, Brueckner-CCSD(T), CCSD density, CASPT2, CASPT2-K
   Simone Kossmann        : Meta GGA functionals, TD-DFT gradient, OOMP2, MP2 Hessian
   Martin Krupicka        : Initial AUTO-CI
   Lucas Lang             : DCDCAS
   Marvin Lechner         : AUTO-CI (C++ implementation), FIC-MRCC
   Dagmar Lenk            : GEPOL surface, SMD
   Dimitrios Liakos       : Extrapolation schemes; Compound Job, initial MDCI parallelization
   Dimitrios Manganas     : Further ROCIS development; embedding schemes
   Dimitrios Pantazis     : SARC Basis sets
   Anastasios Papadopoulos: AUTO-CI, single reference methods and gradients
   Taras Petrenko         : DFT Hessian,TD-DFT gradient, ASA, ECA, R-Raman, ABS, FL, XAS/XES, NRVS
   Peter Pinski           : DLPNO-MP2, DLPNO-MP2 Gradient
   Christoph Reimann      : Effective Core Potentials
   Marius Retegan         : Local ZFS, SOC
   Christoph Riplinger    : Optimizer, TS searches, QM/MM, DLPNO-CCSD(T), (RO)-DLPNO pert. Triples
   Tobias Risthaus        : Range-separated hybrids, TD-DFT gradient, RPA, STAB
   Michael Roemelt        : Original ROCIS implementation
   Masaaki Saitow         : Open-shell DLPNO-CCSD energy and density
   Barbara Sandhoefer     : DKH picture change effects
   Avijit Sen             : IP-ROCIS
   Kantharuban Sivalingam : CASSCF convergence, NEVPT2, FIC-MRCI
   Bernardo de Souza      : ESD, SOC TD-DFT
   Georgi Stoychev        : AutoAux, RI-MP2 NMR, DLPNO-MP2 response
   Willem Van den Heuvel  : Paramagnetic NMR
   Boris Wezisla          : Elementary symmetry handling
   Frank Wennmohs         : Technical directorship


 We gratefully acknowledge several colleagues who have allowed us to
 interface, adapt or use parts of their codes:
   Stefan Grimme, W. Hujo, H. Kruse, P. Pracht,  : VdW corrections, initial TS optimization,
                  C. Bannwarth, S. Ehlert          DFT functionals, gCP, sTDA/sTD-DF
   Ed Valeev, F. Pavosevic, A. Kumar             : LibInt (2-el integral package), F12 methods
   Garnet Chan, S. Sharma, J. Yang, R. Olivares  : DMRG
   Ulf Ekstrom                                   : XCFun DFT Library
   Mihaly Kallay                                 : mrcc  (arbitrary order and MRCC methods)
   Jiri Pittner, Ondrej Demel                    : Mk-CCSD
   Frank Weinhold                                : gennbo (NPA and NBO analysis)
   Christopher J. Cramer and Donald G. Truhlar   : smd solvation model
   Lars Goerigk                                  : TD-DFT with DH, B97 family of functionals
   V. Asgeirsson, H. Jonsson                     : NEB implementation
   FAccTs GmbH                                   : IRC, NEB, NEB-TS, DLPNO-Multilevel, CI-OPT
                                                   MM, QMMM, 2- and 3-layer-ONIOM, Crystal-QMMM,
                                                   LR-CPCM, SF, NACMEs, symmetry and pop. for TD-DFT,
                                                   nearIR, NL-DFT gradient (VV10), updates on ESD,
                                                   ML-optimized integration grids
   S Lehtola, MJT Oliveira, MAL Marques          : LibXC Library
   Liviu Ungur et al                             : ANISO software


 Your calculation uses the libint2 library for the computation of 2-el integrals
 For citations please refer to: http://libint.valeyev.net

 Your ORCA version has been built with support for libXC version: 5.1.0
 For citations please refer to: https://tddft.org/programs/libxc/

 This ORCA versions uses:
   CBLAS   interface :  Fast vector & matrix operations
   LAPACKE interface :  Fast linear algebra routines
   SCALAPACK package :  Parallel linear algebra routines
   Shared memory     :  Shared parallel matrices
   BLAS/LAPACK       :  OpenBLAS 0.3.15  USE64BITINT DYNAMIC_ARCH NO_AFFINITY SkylakeX SINGLE_THREADED
        Core in use  :  SkylakeX
   Copyright (c) 2011-2014, The OpenBLAS Project




***************************************
The coordinates will be read from file: reactants.xyz
***************************************


Your calculation utilizes the SMD solvation module
Please cite in your paper:
A.V. Marenich, C.J. Cramer, D.G. Truhlar J. Phys. Chem. B, 113, (2009), 6378 

XCFun DFT library Copyright 2009-2010 Ulf Ekstrom and contributors.
See http://admol.org/xcfun for more information.
This is free software; see the source code for copying conditions.
There is ABSOLUTELY NO WARRANTY; not even for MERCHANTABILITY or FITNESS FOR A PARTICULAR PURPOSE.
For details see the documentation.
Scientific users of this library should cite U. Ekstrom, L. Visscher, R. Bast, A. J. Thorvaldsen and K. Ruud;
J.Chem.Theor.Comp. 2010, DOI: 10.1021/ct100117s
XCFun Version 0.99 

================================================================================

----- Orbital basis set information -----
Your calculation utilizes the basis: 6-311++G**
   H, Li - Ne  : R. Krishnan, J. S. Binkley, R. Seeger and J. A. Pople, J. Chem. Phys. 72, 650 (1980).
   Na - Ar     : A. D. McLean and G. S. Chandler J. Chem. Phys. 72, 5639, (1980).
   K  - Ca     : J.-P. Blaudeau, M. P. McGrath, L. A. Curtiss and L. Radom, J. Chem. Phys. 107, 5016 (1997).
   Ga - Kr     : L. A. Curtiss, M. P. McGrath, J.-P. Blandeau, N. E. Davis, R. C. Binning and L. Radom, J. Chem. Phys. 103, 6104 (1995).
   Pol./Diff.
   H, Li - Cl  : T. Clark, J. Chandrasekhar and P. v. R. Schleyer, J. Comp. Chem. 4, 294 (1983).
   H - Ne      : M. J. Frisch, J. A. Pople and J. S. Binkley, J. Chem. Phys. 80, 3265 (1984).

----- AuxJ basis set information -----
Your calculation utilizes the auxiliary basis: def2/J
   F. Weigend, Phys. Chem. Chem. Phys. 8, 1057 (2006).

================================================================================
                                        WARNINGS
                       Please study these warnings very carefully!
================================================================================


WARNING: Geometry Optimization
  ===> : Switching off AutoStart
         For restart on a previous wavefunction, please use MOREAD

INFO   : the flag for use of the SHARK integral package has been found!

================================================================================
                                       INPUT FILE
================================================================================
NAME = structure_opt.inp
|  1> !wb97x 6-311++G** OPT CPCM(WATER)
|  2> %maxcore  3500
|  3> %pal
|  4> nprocs 24
|  5> end
|  6> %cpcm
|  7> smd true
|  8> SMDsolvent "water"
|  9> end
| 10> %geom
| 11> ConstrainFragments {1} end
| 12> ConstrainFragments {4} end
| 13> ConnectFragments
| 14> { 1 2 C 5 7 }
| 15> { 1 2 C 0 9 }
| 16> { 2 3 C 13 5 }
| 17> { 3 4 C 13 17 }
| 18> end
| 19> end
| 20> * XYZfile -1 1 reactants.xyz
| 21> %geom
| 22> Fragments
| 23> 1 {0:5} end
| 24> 2 {6:12} end
| 25> 3 {13:16} end
| 26> 4 {17} end
| 27> end
| 28> end
| 29> 
| 30>                          ****END OF INPUT****
================================================================================

                       *****************************
                       * Geometry Optimization Run *
                       *****************************

Geometry optimization settings:
Update method            Update   .... BFGS
Choice of coordinates    CoordSys .... Z-matrix Internals
Initial Hessian          InHess   .... Almoef's Model

Convergence Tolerances:
Energy Change            TolE     ....  5.0000e-06 Eh
Max. Gradient            TolMAXG  ....  3.0000e-04 Eh/bohr
RMS Gradient             TolRMSG  ....  1.0000e-04 Eh/bohr
Max. Displacement        TolMAXD  ....  4.0000e-03 bohr
RMS Displacement         TolRMSD  ....  2.0000e-03 bohr
Strict Convergence                ....  False
------------------------------------------------------------------------------
                        ORCA OPTIMIZATION COORDINATE SETUP
------------------------------------------------------------------------------

The optimization will be done in new redundant internal coordinates
Making redundant internal coordinates   ...  (new redundants) done
Evaluating the initial hessian          ...  (Almloef) done
Evaluating the coordinates              ...  done
Calculating the B-matrix                .... done
Calculating the G-matrix                .... done
Diagonalizing the G-matrix              .... done
Imposing constraints:
 Iter   0:  RMS(Cart)=    0.0000000000 RMS(Int)=    0.0000000000
CONVERGED
Small eigenvalue found = 1.174e-02
Small eigenvalue found = 2.241e-02
The first mode is                       ....   66
The number of degrees of freedom        ....   48
Storing new coordinates                 .... done

    -----------------------------------------------------------------
                    Redundant Internal Coordinates


    -----------------------------------------------------------------
         Definition                    Initial Value    Approx d2E/dq
    -----------------------------------------------------------------
      1. B(N   1,C   0)                  1.3611         0.622347   
      2. B(C   2,N   1)                  1.3582         0.628875   
      3. B(C   3,C   2)                  1.3949         0.613658   
      4. B(C   4,C   3)                  1.3934         0.616971   
      5. B(C   5,C   0)                  1.4122         0.575774   
      6. B(C   5,C   4)                  1.4061         0.588917   
      7. B(O   7,C   5)                  2.3435         0.016853 C 
      8. B(O   7,N   6)                  1.2480         0.844503   
      9. B(O   8,N   6)                  1.3769         0.525866   
     10. B(F   9,C   0)                  1.3500         0.602260 C 
     11. B(F   9,N   6)                  2.8678         0.002044   
     12. B(F   9,O   7)                  2.5821         0.005837   
     13. B(H  11,H  10)                  2.4818         0.000415   
     14. B(H  12,O   8)                  2.5152         0.001717   
     15. B(H  12,H  11)                  2.4663         0.000439   
     16. B(H  12,N   6)                  2.7029         0.000861   
     17. B(C  13,O   8)                  7.2565         0.000000 C 
     18. B(H  14,C  13)                  1.0937         0.355190   
     19. B(H  15,C  13)                  1.0930         0.356133   
     20. B(H  16,C  13)                  1.0938         0.355170   
     21. B(S  17,C  13)                  1.8034         0.368927 C 
     22. A(N   1,C   0,C   5)          120.1571         0.425830   
     23. A(N   1,C   0,F   9)          118.6704         0.424592 C 
     24. A(C   5,C   0,F   9)          121.1725         0.421471 C 
     25. A(C   0,N   1,C   2)          121.9524         0.429796   
     26. A(N   1,C   2,C   3)          120.0262         0.431531   
     27. A(C   2,C   3,C   4)          119.3498         0.432882   
     28. A(C   3,C   4,C   5)          120.4718         0.429694   
     29. A(C   0,C   5,O   7)           94.5313         0.237820 C 
     30. A(C   0,C   5,C   4)          118.0425         0.424407   
     31. A(C   4,C   5,O   7)          147.4261         0.238582 C 
     32. A(F   9,N   6,H  12)          110.0144         0.106848   
     33. A(O   8,N   6,H  12)           67.2752         0.152046   
     34. A(O   7,N   6,H  12)          174.2234         0.159181   
     35. A(O   7,N   6,O   8)          118.5014         0.433822   
     36. A(O   7,N   6,F   9)           64.2090         0.186619   
     37. A(N   6,O   7,F   9)           89.9947         0.212791   
     38. A(C   5,O   7,N   6)           31.7456         0.248611 C 
     39. A(C   5,O   7,F   9)           58.2491         0.140475 C 
     40. A(N   6,O   8,H  12)           82.3972         0.162696   
     41. A(H  12,O   8,C  13)          120.1165         0.089574 C 
     42. A(N   6,O   8,C  13)           95.6635         0.091412 C 
     43. A(C   0,F   9,O   7)           86.0471         0.203997 C 
     44. A(N   6,F   9,O   7)           25.7962         0.120482   
     45. A(C   0,F   9,N   6)           60.2509         0.179684 C 
     46. A(H  10,H  11,H  12)          119.7063         0.095112   
     47. A(N   6,H  12,O   8)           30.3275         0.103999   
     48. A(N   6,H  12,H  11)          126.7169         0.097913   
     49. A(O   8,H  12,H  11)          157.0445         0.099419   
     50. A(H  14,C  13,H  15)          109.0542         0.289709   
     51. A(H  14,C  13,H  16)          108.8953         0.289586   
     52. A(H  15,C  13,H  16)          109.0619         0.289707   
     53. A(O   8,C  13,H  14)          140.5154         0.090941 C 
     54. A(O   8,C  13,S  17)           30.6682         0.091422   
     55. A(O   8,C  13,H  15)           91.5266         0.090942 C 
     56. A(O   8,C  13,H  16)           94.6972         0.090941 C 
     57. A(H  14,C  13,S  17)          109.9405         0.339347 C 
     58. A(H  15,C  13,S  17)          109.9632         0.339497 C 
     59. A(H  16,C  13,S  17)          109.9002         0.339344 C 
     60. D(C   2,N   1,C   0,C   5)     -0.1041         0.028432   
     61. D(C   2,N   1,C   0,F   9)    179.9112         0.028432 C 
     62. D(C   3,C   2,N   1,C   0)      0.1066         0.025783   
     63. D(C   4,C   3,C   2,N   1)     -0.0956         0.020965   
     64. D(C   5,C   4,C   3,C   2)      0.0854         0.021202   
     65. D(O   7,C   5,C   0,F   9)     -0.0223         0.022761 C 
     66. D(O   7,C   5,C   4,C   3)   -179.9036         0.021656 C 
     67. D(O   7,C   5,C   0,N   1)    179.9933         0.022761 C 
     68. D(C   4,C   5,C   0,N   1)      0.0896         0.022761   
     69. D(C   0,C   5,C   4,C   3)     -0.0818         0.021656   
     70. D(C   4,C   5,C   0,F   9)   -179.9260         0.022761 C 
     71. D(N   6,O   7,C   5,C   4)     -0.1099         0.001517 C 
     72. D(N   6,O   7,C   5,C   0)   -179.9521         0.001517 C 
     73. D(F   9,O   7,C   5,C   4)    179.8539         0.001517 C 
     74. D(F   9,O   7,C   5,C   0)      0.0117         0.001517 C 
     75. D(F   9,O   7,N   6,O   8)    179.9932         0.079747   
     76. D(F   9,O   7,N   6,H  12)      0.1568         0.079747   
     77. D(C   5,O   7,N   6,O   8)   -179.9761         0.079747 C 
     78. D(C   5,O   7,N   6,H  12)      0.1876         0.079747 C 
     79. D(C   5,O   7,N   6,F   9)      0.0308         0.079747 C 
     80. D(C  13,O   8,N   6,O   7)     60.3180         0.027866 C 
     81. D(C  13,O   8,N   6,H  12)   -119.6998         0.027866 C 
     82. D(H  12,O   8,N   6,O   7)   -179.9821         0.027866   
     83. D(N   6,F   9,O   7,C   5)     -0.0190         0.001503 C 
     84. D(N   6,F   9,C   0,N   1)   -179.9918         0.032536 C 
     85. D(N   6,F   9,C   0,C   5)      0.0236         0.032536 C 
     86. D(O   7,F   9,N   6,H  12)   -179.9832         0.001500   
     87. D(C   0,F   9,N   6,O   7)   -179.9922         0.001500 C 
     88. D(C   0,F   9,N   6,H  12)      0.0246         0.001500 C 
     89. D(O   7,F   9,C   0,C   5)      0.0202         0.032536 C 
     90. D(O   7,F   9,C   0,N   1)   -179.9952         0.032536 C 
     91. D(C   0,F   9,O   7,N   6)      0.0068         0.001503 C 
     92. D(C   0,F   9,O   7,C   5)     -0.0123         0.001503 C 
     93. D(O   7,F   9,O   8,H  12)   -179.9897         0.001500   
     94. D(O   7,F   9,O   8,C  13)     60.4814         0.001500 C 
     95. D(C   0,F   9,O   8,H  12)      0.0232         0.001500 C 
     96. D(C   0,F   9,O   8,C  13)   -119.5056         0.001500   
     97. D(O   8,H  12,H  11,H  10)      0.0710         0.001502   
     98. D(O   8,H  12,N   6,F   9)    179.9943         0.001501   
     99. D(H  11,H  12,N   6,O   7)     -0.1748         0.001501   
    100. D(H  11,H  12,N   6,O   8)    179.9811         0.001501   
    101. D(H  11,H  12,N   6,F   9)     -0.0245         0.001501   
    102. D(N   6,H  12,O   8,C  13)     92.1590         0.001502 C 
    103. D(H  11,H  12,O   8,N   6)     -0.0388         0.001502   
    104. D(H  11,H  12,O   8,C  13)     92.1202         0.001502 C 
    105. D(O   8,H  12,N   6,O   7)    179.8441         0.001501   
    106. D(N   6,H  12,H  11,H  10)      0.0466         0.001502   
    107. D(S  17,C  13,O   8,H  12)    -87.3797         0.001500   
    108. D(H  14,C  13,O   8,H  12)    -92.9478         0.001500 C 
    109. D(H  15,C  13,O   8,N   6)   -131.5558         0.001500 C 
    110. D(H  15,C  13,O   8,H  12)    143.9633         0.001500 C 
    111. D(H  16,C  13,O   8,N   6)    119.1757         0.001500 C 
    112. D(H  16,C  13,O   8,H  12)     34.6947         0.001500 C 
    113. D(H  14,C  13,O   8,N   6)     -8.4669         0.001500 C 
    114. D(S  17,C  13,O   8,N   6)     -2.8988         0.001500   
    -----------------------------------------------------------------

Number of atoms                         .... 18
Number of degrees of freedom            .... 114

         *************************************************************
         *                GEOMETRY OPTIMIZATION CYCLE   1            *
         *************************************************************
---------------------------------
CARTESIAN COORDINATES (ANGSTROEM)
---------------------------------
  C      0.000000    0.000000    1.820000
  N      1.178000   -0.196000    2.473000
  C      1.255000   -0.207000    3.829000
  C      0.105000   -0.016000    4.595000
  C     -1.116000    0.187000    3.955000
  C     -1.192000    0.198000    2.551000
  N     -2.456000    0.409000    1.893000
  O     -2.541000    0.423000    0.648000
  O     -3.602000    0.600000    2.632000
  F      0.000000    0.000000    0.470000
  H      2.209000   -0.366000    4.313000
  H      0.163000   -0.026000    5.676000
  H     -2.005000    0.335000    4.557000
  C     -7.122000   -5.174000    0.000000
  H     -7.028000   -5.938000   -0.777000
  H     -8.017000   -4.577000   -0.193000
  H     -7.224000   -5.667000    0.971000
  S     -5.663000   -4.114000    0.000000

----------------------------
CARTESIAN COORDINATES (A.U.)
----------------------------
  NO LB      ZA    FRAG     MASS         X           Y           Z
   0 C     6.0000    1    12.011    0.000000    0.000000    3.439302
   1 N     7.0000    1    14.007    2.226097   -0.370386    4.673293
   2 C     6.0000    1    12.011    2.371606   -0.391173    7.235761
   3 C     6.0000    1    12.011    0.198421   -0.030236    8.683292
   4 C     6.0000    1    12.011   -2.108934    0.353379    7.473867
   5 C     6.0000    1    12.011   -2.252554    0.374166    4.820691
   6 N     7.0000    2    14.007   -4.641167    0.772898    3.577252
   7 O     8.0000    2    15.999   -4.801794    0.799354    1.224543
   8 O     8.0000    2    15.999   -6.806794    1.133836    4.973759
   9 F     9.0000    2    18.998    0.000000    0.000000    0.888171
  10 H     1.0000    2     1.008    4.174405   -0.691640    8.150389
  11 H     1.0000    2     1.008    0.308025   -0.049133   10.726086
  12 H     1.0000    2     1.008   -3.788901    0.633058    8.611482
  13 C     6.0000    3    12.011  -13.458630   -9.777443    0.000000
  14 H     1.0000    3     1.008  -13.280995  -11.221194   -1.468317
  15 H     1.0000    3     1.008  -15.149934   -8.649277   -0.364717
  16 H     1.0000    3     1.008  -13.651382  -10.709078    1.834924
  17 S    16.0000    4    32.060  -10.701519   -7.774333    0.000000

----------------------------------------------
CARTESIAN COORDINATES OF FRAGMENTS (ANGSTROEM)
----------------------------------------------

 FRAGMENT 1 
  C     0.000000    0.000000    1.820000
  N     1.178000   -0.196000    2.473000
  C     1.255000   -0.207000    3.829000
  C     0.105000   -0.016000    4.595000
  C    -1.116000    0.187000    3.955000
  C    -1.192000    0.198000    2.551000

 FRAGMENT 2 
  N    -2.456000    0.409000    1.893000
  O    -2.541000    0.423000    0.648000
  O    -3.602000    0.600000    2.632000
  F     0.000000    0.000000    0.470000
  H     2.209000   -0.366000    4.313000
  H     0.163000   -0.026000    5.676000
  H    -2.005000    0.335000    4.557000

 FRAGMENT 3 
  C    -7.122000   -5.174000    0.000000
  H    -7.028000   -5.938000   -0.777000
  H    -8.017000   -4.577000   -0.193000
  H    -7.224000   -5.667000    0.971000

 FRAGMENT 4 
  S    -5.663000   -4.114000    0.000000

--------------------------------
INTERNAL COORDINATES (ANGSTROEM)
--------------------------------
 C      0   0   0     0.000000000000     0.00000000     0.00000000
 N      1   0   0     1.361069065110     0.00000000     0.00000000
 C      2   1   0     1.358228993948   121.95243626     0.00000000
 C      3   2   1     1.394896770374   120.02620694     0.10655554
 C      4   3   2     1.393431017309   119.34983770   359.90435571
 C      5   4   3     1.406098502951   120.47178172     0.08537773
 N      6   5   4     1.440548853736   120.30882193   180.03842131
 O      7   6   5     1.247976762604   121.13704526   179.93147861
 O      7   6   5     1.376923382037   120.36156660   359.90709941
 F      1   2   3     1.350000000000   118.67037638   179.91115691
 H      3   2   1     1.081504969938   119.86701156   179.98746005
 H      4   3   2     1.082601034546   120.19197482   179.89186186
 H      5   4   3     1.083803026384   118.91636700   180.02085854
 C      9   7   6     7.256507424374    95.66351853   240.34175837
 H     14   9   7     1.093737171353   140.51541476   351.53311607
 H     14   9   7     1.093015553412    91.52656541   228.44421986
 H     14   9   7     1.093752257141    94.69723807   119.17567169
 S     14   9   7     1.803408162342    30.66816262   357.10121929

---------------------------
INTERNAL COORDINATES (A.U.)
---------------------------
 C      0   0   0     0.000000000000     0.00000000     0.00000000
 N      1   0   0     2.572047782411     0.00000000     0.00000000
 C      2   1   0     2.566680825712   121.95243626     0.00000000
 C      3   2   1     2.635972881098   120.02620694     0.10655554
 C      4   3   2     2.633203009226   119.34983770   359.90435571
 C      5   4   3     2.657141087893   120.47178172     0.08537773
 N      6   5   4     2.722242816095   120.30882193   180.03842131
 O      7   6   5     2.358334302820   121.13704526   179.93147861
 O      7   6   5     2.602008099442   120.36156660   359.90709941
 F      1   2   3     2.551130280794   118.67037638   179.91115691
 H      3   2   1     2.043748205657   119.86701156   179.98746005
 H      4   3   2     2.045819467592   120.19197482   179.89186186
 H      5   4   3     2.048090902982   118.91636700   180.02085854
 C      9   7   6    13.712811720834    95.66351853   240.34175837
 H     14   9   7     2.066863716348   140.51541476   351.53311607
 H     14   9   7     2.065500056065    91.52656541   228.44421986
 H     14   9   7     2.066892224354    94.69723807   119.17567169
 S     14   9   7     3.407947534504    30.66816262   357.10121929

---------------------
BASIS SET INFORMATION
---------------------
There are 6 groups of distinct atoms

 Group   1 Type C   : 12s6p1d contracted to 5s4p1d pattern {63111/3111/1}
 Group   2 Type N   : 12s6p1d contracted to 5s4p1d pattern {63111/3111/1}
 Group   3 Type O   : 12s6p1d contracted to 5s4p1d pattern {63111/3111/1}
 Group   4 Type F   : 12s6p1d contracted to 5s4p1d pattern {63111/3111/1}
 Group   5 Type H   : 6s1p contracted to 4s1p pattern {3111/1}
 Group   6 Type S   : 14s10p1d contracted to 7s6p1d pattern {6311111/421111/1}

Atom   0C    basis set group =>   1
Atom   1N    basis set group =>   2
Atom   2C    basis set group =>   1
Atom   3C    basis set group =>   1
Atom   4C    basis set group =>   1
Atom   5C    basis set group =>   1
Atom   6N    basis set group =>   2
Atom   7O    basis set group =>   3
Atom   8O    basis set group =>   3
Atom   9F    basis set group =>   4
Atom  10H    basis set group =>   5
Atom  11H    basis set group =>   5
Atom  12H    basis set group =>   5
Atom  13C    basis set group =>   1
Atom  14H    basis set group =>   5
Atom  15H    basis set group =>   5
Atom  16H    basis set group =>   5
Atom  17S    basis set group =>   6
---------------------------------
AUXILIARY/J BASIS SET INFORMATION
---------------------------------
There are 6 groups of distinct atoms

 Group   1 Type C   : 12s5p4d2f1g contracted to 6s4p3d1f1g pattern {711111/2111/211/2/1}
 Group   2 Type N   : 12s5p4d2f1g contracted to 6s4p3d1f1g pattern {711111/2111/211/2/1}
 Group   3 Type O   : 12s5p4d2f1g contracted to 6s4p3d1f1g pattern {711111/2111/211/2/1}
 Group   4 Type F   : 12s5p4d2f1g contracted to 6s4p3d1f1g pattern {711111/2111/211/2/1}
 Group   5 Type H   : 5s2p1d contracted to 3s1p1d pattern {311/2/1}
 Group   6 Type S   : 14s5p5d2f1g contracted to 8s4p3d1f1g pattern {71111111/2111/311/2/1}

Atom   0C    basis set group =>   1
Atom   1N    basis set group =>   2
Atom   2C    basis set group =>   1
Atom   3C    basis set group =>   1
Atom   4C    basis set group =>   1
Atom   5C    basis set group =>   1
Atom   6N    basis set group =>   2
Atom   7O    basis set group =>   3
Atom   8O    basis set group =>   3
Atom   9F    basis set group =>   4
Atom  10H    basis set group =>   5
Atom  11H    basis set group =>   5
Atom  12H    basis set group =>   5
Atom  13C    basis set group =>   1
Atom  14H    basis set group =>   5
Atom  15H    basis set group =>   5
Atom  16H    basis set group =>   5
Atom  17S    basis set group =>   6


           ************************************************************
           *        Program running with 24 parallel MPI-processes    *
           *              working on a common directory               *
           ************************************************************
------------------------------------------------------------------------------
                           ORCA GTO INTEGRAL CALCULATION
                           -- RI-GTO INTEGRALS CHOSEN --
------------------------------------------------------------------------------
------------------------------------------------------------------------------
                   ___                                                        
                  /   \      - P O W E R E D   B Y -                         
                 /     \                                                     
                 |  |  |   _    _      __       _____    __    __             
                 |  |  |  | |  | |    /  \     |  _  \  |  |  /  |          
                  \  \/   | |  | |   /    \    | | | |  |  | /  /          
                 / \  \   | |__| |  /  /\  \   | |_| |  |  |/  /          
                |  |  |   |  __  | /  /__\  \  |    /   |      \           
                |  |  |   | |  | | |   __   |  |    \   |  |\   \          
                \     /   | |  | | |  |  |  |  | |\  \  |  | \   \       
                 \___/    |_|  |_| |__|  |__|  |_| \__\ |__|  \__/        
                                                                              
                      - O R C A' S   B I G   F R I E N D -                    
                                      &                                       
                       - I N T E G R A L  F E E D E R -                       
                                                                              
 v1 FN, 2020, v2 2021                                                         
------------------------------------------------------------------------------


Reading SHARK input file structure_opt.SHARKINP.tmp ... ok
----------------------
SHARK INTEGRAL PACKAGE
----------------------

Number of atoms                             ...     18
Number of basis functions                   ...    314
Number of shells                            ...    154
Maximum angular momentum                    ...      2
Integral batch strategy                     ... SHARK/LIBINT Hybrid
RI-J (if used) integral strategy            ... SPLIT-RIJ (Revised 2003 algorithm where possible)
Printlevel                                  ...      1
Contraction scheme used                     ... SEGMENTED contraction
Coulomb Range Separation                    ... NOT USED
Exchange Range Separation                   ... Long Range
   Mu parameter                             ...  0.300000
   Scaling (regular/separated)              ...  0.157706  0.842294
Finite Nucleus Model                        ... NOT USED
Auxiliary Coulomb fitting basis             ... AVAILABLE
   # of basis functions in Aux-J            ...    656
   # of shells in Aux-J                     ...    212
   Maximum angular momentum in Aux-J        ...      4
Auxiliary J/K fitting basis                 ... NOT available
Auxiliary Correlation fitting basis         ... NOT available
Auxiliary 'external' fitting basis          ... NOT available
Integral threshold                          ...     2.500000e-11
Primitive cut-off                           ...     2.500000e-12
Primitive pair pre-selection threshold      ...     2.500000e-12

Calculating pre-screening integrals         ... done (  0.0 sec) Dimension = 154
Organizing shell pair data                  ... done (  0.1 sec)
Shell pair information
Total number of shell pairs                 ...     11935
Shell pairs after pre-screening             ...      8855
Total number of primitive shell pairs       ...     38500
Primitive shell pairs kept                  ...     20298
          la=0 lb=0:   2707 shell pairs
          la=1 lb=0:   3644 shell pairs
          la=1 lb=1:   1261 shell pairs
          la=2 lb=0:    704 shell pairs
          la=2 lb=1:    487 shell pairs
          la=2 lb=2:     52 shell pairs

Calculating one electron integrals          ... done (  0.0 sec)
Calculating RI/J V-Matrix + Cholesky decomp.... done (  0.3 sec)
Calculating Nuclear repulsion               ... done (  0.0 sec) ENN=    678.134220257655 Eh

SHARK setup successfully completed in   1.2 seconds

Maximum memory used throughout the entire GTOINT-calculation: 17.6 MB


           ************************************************************
           *        Program running with 24 parallel MPI-processes    *
           *              working on a common directory               *
           ************************************************************
-------------------------------------------------------------------------------
                                 ORCA SCF
-------------------------------------------------------------------------------

------------
SCF SETTINGS
------------
Hamiltonian:
 Density Functional     Method          .... DFT(GTOs)
 Exchange Functional    Exchange        .... WB97X
 Correlation Functional Correlation     .... WB97X
 Gradients option       PostSCFGGA      .... off
 Hybrid DFT is turned on
   Fraction HF Exchange ScalHFX         ....  0.157706
   Scaling of DF-GGA-X  ScalDFX         ....  0.000000
   Scaling of DF-GGA-C  ScalDFC         ....  1.000000
   Scaling of DF-LDA-C  ScalLDAC        ....  1.000000
   Perturbative correction              ....  0.000000
   Density functional embedding theory  .... OFF
 Long-range corrected/Screened/Range-Separated Hybrid DFT is turned on
   Amount of maximum screened exact exchange              ....  0.842294
   Range separation parameter mu (erf(mu*r12)/r12)        ....  0.300000
 RI-approximation to the Coulomb term is turned on
   Number of AuxJ basis functions       .... 656
   RIJ-COSX (HFX calculated with COS-X)).... on


General Settings:
 Integral files         IntName         .... structure_opt
 Hartree-Fock type      HFTyp           .... RHF
 Total Charge           Charge          ....   -1
 Multiplicity           Mult            ....    1
 Number of Electrons    NEL             ....   98
 Basis Dimension        Dim             ....  314
 Nuclear Repulsion      ENuc            ....    678.1342202577 Eh

Convergence Acceleration:
 DIIS                   CNVDIIS         .... on
   Start iteration      DIISMaxIt       ....    12
   Startup error        DIISStart       ....  0.200000
   # of expansion vecs  DIISMaxEq       ....     5
   Bias factor          DIISBfac        ....   1.050
   Max. coefficient     DIISMaxC        ....  10.000
 Trust-Rad. Augm. Hess. CNVTRAH         .... auto
   Auto Start mean grad. ratio tolernc. ....  1.125000
   Auto Start start iteration           ....    20
   Auto Start num. interpolation iter.  ....    10
   Max. Number of Micro iterations      ....    16
   Max. Number of Macro iterations      .... Maxiter - #DIIS iter
   Number of Davidson start vectors     ....     2
   Converg. threshold I  (grad. norm)   ....   1.000e-05
   Converg. threshold II (energy diff.) ....   1.000e-08
   Grad. Scal. Fac. for Micro threshold ....   0.100
   Minimum threshold for Micro iter.    ....   0.010
   NR start threshold (gradient norm)   ....   0.001
   Initial trust radius                 ....   0.400
   Minimum AH scaling param. (alpha)    ....   1.000
   Maximum AH scaling param. (alpha)    .... 1000.000
   Orbital update algorithm             .... Taylor
   White noise on init. David. guess    .... on
   Maximum white noise                  ....   0.010
   Quad. conv. algorithm                .... NR
 SOSCF                  CNVSOSCF        .... on
   Start iteration      SOSCFMaxIt      ....   150
   Startup grad/error   SOSCFStart      ....  0.003300
 Level Shifting         CNVShift        .... on
   Level shift para.    LevelShift      ....    0.2500
   Turn off err/grad.   ShiftErr        ....    0.0010
 Zerner damping         CNVZerner       .... off
 Static damping         CNVDamp         .... on
   Fraction old density DampFac         ....    0.7000
   Max. Damping (<1)    DampMax         ....    0.9800
   Min. Damping (>=0)   DampMin         ....    0.0000
   Turn off err/grad.   DampErr         ....    0.1000
 Fernandez-Rico         CNVRico         .... off

SCF Procedure:
 Maximum # iterations   MaxIter         ....   125
 SCF integral mode      SCFMode         .... Direct
   Integral package                     .... SHARK and LIBINT hybrid scheme
 Reset frequency        DirectResetFreq ....    20
 Integral Threshold     Thresh          ....  2.500e-11 Eh
 Primitive CutOff       TCut            ....  2.500e-12 Eh

Convergence Tolerance:
 Convergence Check Mode ConvCheckMode   .... Total+1el-Energy
 Convergence forced     ConvForced      .... 0
 Energy Change          TolE            ....  1.000e-08 Eh
 1-El. energy change                    ....  1.000e-05 Eh
 Orbital Gradient       TolG            ....  1.000e-05
 Orbital Rotation angle TolX            ....  1.000e-05
 DIIS Error             TolErr          ....  5.000e-07


Diagonalization of the overlap matrix:
Smallest eigenvalue                        ... 4.174e-06
Time for diagonalization                   ...    0.015 sec
Threshold for overlap eigenvalues          ... 1.000e-08
Number of eigenvalues below threshold      ... 0
Time for construction of square roots      ...    0.038 sec
Total time needed                          ...    0.055 sec

Time for model grid setup =    0.409 sec

------------------------------
INITIAL GUESS: MODEL POTENTIAL
------------------------------
Loading Hartree-Fock densities                     ... done
Calculating cut-offs                               ... done
Initializing the effective Hamiltonian             ... done
Setting up the integral package (SHARK)            ... done
Starting the Coulomb interaction                   ... done (   0.1 sec)
Reading the grid                                   ... done
Mapping shells                                     ... done
Starting the XC term evaluation                    ... done (   0.0 sec)
  promolecular density results
     # of electrons  =     96.996049351
     EX              =    -96.552381124
     EC              =     -3.327187093
     EX+EC           =    -99.879568218
Transforming the Hamiltonian                       ... done (   0.0 sec)
Diagonalizing the Hamiltonian                      ... done (   0.0 sec)
Back transforming the eigenvectors                 ... done (   0.0 sec)
Now organizing SCF variables                       ... done
                      ------------------
                      INITIAL GUESS DONE (   0.6 sec)
                      ------------------
-------------------
DFT GRID GENERATION
-------------------

General Integration Accuracy     IntAcc      ... 4.388
Radial Grid Type                 RadialGrid  ... OptM3 with GC (2021)
Angular Grid (max. ang.)         AngularGrid ... 4 (Lebedev-302)
Angular grid pruning method      GridPruning ... 4 (adaptive)
Weight generation scheme         WeightScheme... Becke
Basis function cutoff            BFCut       ... 1.0000e-11
Integration weight cutoff        WCut        ... 1.0000e-14
Angular grids for H and He will be reduced by one unit
Partially contracted basis set               ... off
Rotationally invariant grid construction     ... off

Total number of grid points                  ...    98138
Total number of batches                      ...     1543
Average number of points per batch           ...       63
Average number of grid points per atom       ...     5452
Time for grid setup =    0.837 sec

--------------------
COSX GRID GENERATION
--------------------

GRIDX 1
-------
General Integration Accuracy     IntAcc      ... 3.816
Radial Grid Type                 RadialGrid  ... OptM3 with GC (2021)
Angular Grid (max. ang.)         AngularGrid ... 1 (Lebedev-50)
Angular grid pruning method      GridPruning ... 4 (adaptive)
Weight generation scheme         WeightScheme... Becke
Basis function cutoff            BFCut       ... 1.0000e-11
Integration weight cutoff        WCut        ... 1.0000e-14
Angular grids for H and He will be reduced by one unit
Partially contracted basis set               ... on
Rotationally invariant grid construction     ... off

Total number of grid points                  ...    12254
Total number of batches                      ...      203
Average number of points per batch           ...       60
Average number of grid points per atom       ...      681
UseSFitting                                  ... on

GRIDX 2
-------
General Integration Accuracy     IntAcc      ... 4.020
Radial Grid Type                 RadialGrid  ... OptM3 with GC (2021)
Angular Grid (max. ang.)         AngularGrid ... 2 (Lebedev-110)
Angular grid pruning method      GridPruning ... 4 (adaptive)
Weight generation scheme         WeightScheme... Becke
Basis function cutoff            BFCut       ... 1.0000e-11
Integration weight cutoff        WCut        ... 1.0000e-14
Angular grids for H and He will be reduced by one unit
Partially contracted basis set               ... on
Rotationally invariant grid construction     ... off

Total number of grid points                  ...    31139
Total number of batches                      ...      496
Average number of points per batch           ...       62
Average number of grid points per atom       ...     1730
UseSFitting                                  ... on

GRIDX 3
-------
General Integration Accuracy     IntAcc      ... 4.338
Radial Grid Type                 RadialGrid  ... OptM3 with GC (2021)
Angular Grid (max. ang.)         AngularGrid ... 3 (Lebedev-194)
Angular grid pruning method      GridPruning ... 4 (adaptive)
Weight generation scheme         WeightScheme... Becke
Basis function cutoff            BFCut       ... 1.0000e-11
Integration weight cutoff        WCut        ... 1.0000e-14
Angular grids for H and He will be reduced by one unit
Partially contracted basis set               ... on
Rotationally invariant grid construction     ... off

Total number of grid points                  ...    69212
Total number of batches                      ...     1092
Average number of points per batch           ...       63
Average number of grid points per atom       ...     3845
UseSFitting                                  ... on

Time for X-Grid setup             =    1.486 sec


--------------------
CPCM SOLVATION MODEL
--------------------
CPCM parameters:
  Epsilon                                         ...      78.3550
  Refrac                                          ...       1.3328
  Rsolv                                           ...       1.3000
  Surface type                                    ... GAUSSIAN VDW
  Epsilon function type                           ...         CPCM
Solvent:                                     ... WATER
SMD-CDS solvent descriptors:
  Soln                                       ...    1.3328
  Soln25                                     ...    1.3323
  Sola                                       ...    0.0000
  Solb                                       ...    0.0000
  Solg                                       ...    0.0000
  Solc                                       ...    0.0000
  Solh                                       ...    0.0000
Radii:
 Radius for C  used is    3.4960 Bohr (=   1.8500 Ang.)
 Radius for N  used is    3.5716 Bohr (=   1.8900 Ang.)
 Radius for O  used is    2.8724 Bohr (=   1.5200 Ang.)
 Radius for F  used is    3.2692 Bohr (=   1.7300 Ang.)
 Radius for H  used is    2.2677 Bohr (=   1.2000 Ang.)
 Radius for S  used is    4.7054 Bohr (=   2.4900 Ang.)
Calculating surface                               ...        done! (  0.0s)
GEPOL surface points                              ...         1157
GEPOL Volume                                      ...    1361.5654
GEPOL Surface-area                                ...     848.0812
Calculating surface distance matrix               ...        done! (  0.0s)
Performing Cholesky decomposition & store         ...        done! (  0.1s)
Overall time for CPCM initialization              ...                 0.1s
--------------
SCF ITERATIONS
--------------
ITER       Energy         Delta-E        Max-DP      RMS-DP      [F,P]     Damp
               ***  Starting incremental Fock matrix formation  ***
  0   -989.8659718904   0.000000000000 0.34180612  0.00328385  0.2373418 0.7000
  1   -990.0281760261  -0.162204135769 0.31602354  0.00266327  0.1192516 0.7000
                               ***Turning on DIIS***
  2   -990.1006094318  -0.072433405649 1.82797662  0.01013362  0.0639957 0.0000
  3   -990.2246393831  -0.124029951279 0.81951249  0.00429202  0.0550082 0.0000
  4   -990.2437831820  -0.019143798903 0.27823521  0.00145238  0.0124226 0.0000
  5   -990.2449576594  -0.001174477431 0.14816040  0.00079258  0.0061502 0.0000
                      *** Initiating the SOSCF procedure ***
                           *** Shutting down DIIS ***
                      *** Re-Reading the Fockian *** 
                      *** Removing any level shift *** 
ITER      Energy       Delta-E        Grad      Rot      Max-DP    RMS-DP
  6   -990.24518886  -0.0002311961  0.001493  0.001493  0.043305  0.000256
               *** Restarting incremental Fock matrix formation ***
  7   -990.24526613  -0.0000772729  0.000977  0.002399  0.024538  0.000261
  8   -990.24530569  -0.0000395569  0.000373  0.002784  0.020333  0.000233
  9   -990.24531184  -0.0000061577  0.000684  0.000718  0.011794  0.000122
 10   -990.24531869  -0.0000068464  0.000112  0.000217  0.002908  0.000033
 11   -990.24531875  -0.0000000566  0.000092  0.000125  0.007320  0.000037
 12   -990.24531911  -0.0000003628  0.000014  0.000040  0.005651  0.000033
 13   -990.24531911  -0.0000000032  0.000007  0.000031  0.006294  0.000044
 14   -990.24531912  -0.0000000042  0.000005  0.000013  0.005183  0.000035
                  ***Gradient check signals convergence***
              ***Rediagonalizing the Fockian in SOSCF/NRSCF***

               *****************************************************
               *                     SUCCESS                       *
               *           SCF CONVERGED AFTER  15 CYCLES          *
               *****************************************************

Old exchange energy                            =    -28.432638859 Eh
New exchange energy                            =    -28.432650262 Eh
Exchange energy change after final integration =     -0.000011403 Eh
Total energy after final integration           =   -990.245330522 Eh
Final COS-X integration done in                =     3.461 sec

SMD CDS free energy correction energy :                 5.87355     Kcal/mol
Total Energy after SMD CDS correction =              -990.235970424 Eh

----------------
TOTAL SCF ENERGY
----------------

Total Energy       :         -990.23597042 Eh          -26945.69065 eV

Components:
Nuclear Repulsion  :          678.13422026 Eh           18452.97026 eV
Electronic Energy  :        -1668.37019068 Eh          -45398.66091 eV
One Electron Energy:        -2715.92843008 Eh          -73904.16980 eV
Two Electron Energy:         1047.55823939 Eh           28505.50889 eV
Max COSX asymmetry :            0.00000223 Eh               0.00006 eV
CPCM Dielectric    :           -0.14052965 Eh              -3.82401 eV
SMD CDS (Gcds)     :            0.00936010 Eh               0.25470 eV

Virial components:
Potential Energy   :        -1977.46747760 Eh          -53809.62569 eV
Kinetic Energy     :          987.23150717 Eh           26863.93505 eV
Virial Ratio       :            2.00304332


DFT components:
N(Alpha)           :       48.999914504543 electrons
N(Beta)            :       48.999914504543 electrons
N(Total)           :       97.999829009085 electrons
E(XC)              :      -73.338054397640 Eh       
DFET-embed. en.    :        0.000000000000 Eh       
CPCM Solvation Model Properties:
Surface-charge          :            0.94672939
Charge-correction       :           -0.00560587 Eh              -0.15254 eV
Free-energy (cav+disp)  :            0.00936010 Eh               0.25470 eV

---------------
SCF CONVERGENCE
---------------

  Last Energy change         ...   -3.5874e-09  Tolerance :   1.0000e-08
  Last MAX-Density change    ...    3.5527e-15  Tolerance :   1.0000e-07
  Last RMS-Density change    ...    4.0847e-17  Tolerance :   5.0000e-09
  Last Orbital Gradient      ...    1.9085e-06  Tolerance :   1.0000e-05
  Last Orbital Rotation      ...    1.8093e-06  Tolerance :   1.0000e-05

             **** THE GBW FILE WAS UPDATED (structure_opt.gbw) ****
             **** DENSITY structure_opt.scfp WAS UPDATED ****
             **** ENERGY FILE WAS UPDATED (structure_opt.en.tmp) ****
             **** THE GBW FILE WAS UPDATED (structure_opt.gbw) ****
             **** DENSITY structure_opt.scfp WAS UPDATED ****
----------------
ORBITAL ENERGIES
----------------

  NO   OCC          E(Eh)            E(eV) 
   0   2.0000     -88.720032     -2414.1948 
   1   2.0000     -24.793355      -674.6615 
   2   2.0000     -19.275483      -524.5126 
   3   2.0000     -19.243789      -523.6501 
   4   2.0000     -14.669676      -399.1822 
   5   2.0000     -14.435630      -392.8135 
   6   2.0000     -10.437716      -284.0247 
   7   2.0000     -10.364160      -282.0231 
   8   2.0000     -10.338270      -281.3186 
   9   2.0000     -10.321201      -280.8542 
  10   2.0000     -10.290562      -280.0204 
  11   2.0000     -10.235848      -278.5316 
  12   2.0000      -7.915900      -215.4026 
  13   2.0000      -5.879071      -159.9776 
  14   2.0000      -5.871653      -159.7758 
  15   2.0000      -5.871635      -159.7753 
  16   2.0000      -1.396388       -37.9976 
  17   2.0000      -1.348072       -36.6829 
  18   2.0000      -1.151328       -31.3292 
  19   2.0000      -1.109327       -30.1863 
  20   2.0000      -1.008378       -27.4394 
  21   2.0000      -0.943449       -25.6726 
  22   2.0000      -0.873992       -23.7825 
  23   2.0000      -0.836002       -22.7488 
  24   2.0000      -0.796689       -21.6790 
  25   2.0000      -0.769192       -20.9308 
  26   2.0000      -0.705983       -19.2108 
  27   2.0000      -0.686509       -18.6808 
  28   2.0000      -0.669367       -18.2144 
  29   2.0000      -0.665023       -18.0962 
  30   2.0000      -0.661622       -18.0036 
  31   2.0000      -0.633190       -17.2300 
  32   2.0000      -0.620370       -16.8811 
  33   2.0000      -0.615292       -16.7429 
  34   2.0000      -0.563842       -15.3429 
  35   2.0000      -0.537152       -14.6166 
  36   2.0000      -0.527998       -14.3675 
  37   2.0000      -0.527975       -14.3669 
  38   2.0000      -0.494350       -13.4520 
  39   2.0000      -0.493976       -13.4418 
  40   2.0000      -0.455953       -12.4071 
  41   2.0000      -0.432331       -11.7643 
  42   2.0000      -0.421507       -11.4698 
  43   2.0000      -0.416447       -11.3321 
  44   2.0000      -0.408106       -11.1051 
  45   2.0000      -0.390592       -10.6285 
  46   2.0000      -0.384976       -10.4757 
  47   2.0000      -0.258831        -7.0432 
  48   2.0000      -0.258774        -7.0416 
  49   0.0000      -0.064745        -1.7618 
  50   0.0000       0.022634         0.6159 
  51   0.0000       0.053004         1.4423 
  52   0.0000       0.055498         1.5102 
  53   0.0000       0.058331         1.5873 
  54   0.0000       0.068127         1.8538 
  55   0.0000       0.074592         2.0297 
  56   0.0000       0.087761         2.3881 
  57   0.0000       0.090213         2.4548 
  58   0.0000       0.093026         2.5314 
  59   0.0000       0.098976         2.6933 
  60   0.0000       0.112646         3.0652 
  61   0.0000       0.116572         3.1721 
  62   0.0000       0.126593         3.4448 
  63   0.0000       0.128905         3.5077 
  64   0.0000       0.133897         3.6435 
  65   0.0000       0.140253         3.8165 
  66   0.0000       0.147314         4.0086 
  67   0.0000       0.154115         4.1937 
  68   0.0000       0.162753         4.4287 
  69   0.0000       0.166205         4.5227 
  70   0.0000       0.169762         4.6195 
  71   0.0000       0.173442         4.7196 
  72   0.0000       0.176846         4.8122 
  73   0.0000       0.180704         4.9172 
  74   0.0000       0.182070         4.9544 
  75   0.0000       0.183669         4.9979 
  76   0.0000       0.192724         5.2443 
  77   0.0000       0.193541         5.2665 
  78   0.0000       0.197321         5.3694 
  79   0.0000       0.203380         5.5343 
  80   0.0000       0.213254         5.8029 
  81   0.0000       0.219361         5.9691 
  82   0.0000       0.223959         6.0942 
  83   0.0000       0.226085         6.1521 
  84   0.0000       0.234719         6.3870 
  85   0.0000       0.240519         6.5448 
  86   0.0000       0.250683         6.8214 
  87   0.0000       0.254033         6.9126 
  88   0.0000       0.263670         7.1748 
  89   0.0000       0.271224         7.3804 
  90   0.0000       0.272230         7.4078 
  91   0.0000       0.278362         7.5746 
  92   0.0000       0.279002         7.5920 
  93   0.0000       0.284117         7.7312 
  94   0.0000       0.289898         7.8885 
  95   0.0000       0.297719         8.1013 
  96   0.0000       0.305530         8.3139 
  97   0.0000       0.311126         8.4662 
  98   0.0000       0.313421         8.5286 
  99   0.0000       0.326369         8.8809 
 100   0.0000       0.327932         8.9235 
 101   0.0000       0.342138         9.3101 
 102   0.0000       0.349030         9.4976 
 103   0.0000       0.350138         9.5277 
 104   0.0000       0.360526         9.8104 
 105   0.0000       0.369361        10.0508 
 106   0.0000       0.375545        10.2191 
 107   0.0000       0.376859        10.2549 
 108   0.0000       0.394290        10.7292 
 109   0.0000       0.402131        10.9426 
 110   0.0000       0.409282        11.1371 
 111   0.0000       0.415301        11.3009 
 112   0.0000       0.422790        11.5047 
 113   0.0000       0.432134        11.7590 
 114   0.0000       0.436529        11.8785 
 115   0.0000       0.451722        12.2920 
 116   0.0000       0.459714        12.5095 
 117   0.0000       0.461593        12.5606 
 118   0.0000       0.474060        12.8998 
 119   0.0000       0.485548        13.2124 
 120   0.0000       0.493894        13.4395 
 121   0.0000       0.502815        13.6823 
 122   0.0000       0.523733        14.2515 
 123   0.0000       0.528977        14.3942 
 124   0.0000       0.529759        14.4155 
 125   0.0000       0.555251        15.1091 
 126   0.0000       0.582809        15.8590 
 127   0.0000       0.613063        16.6823 
 128   0.0000       0.616854        16.7855 
 129   0.0000       0.618967        16.8429 
 130   0.0000       0.635047        17.2805 
 131   0.0000       0.638334        17.3699 
 132   0.0000       0.657919        17.9029 
 133   0.0000       0.661876        18.0106 
 134   0.0000       0.669603        18.2208 
 135   0.0000       0.701736        19.0952 
 136   0.0000       0.702393        19.1131 
 137   0.0000       0.727050        19.7840 
 138   0.0000       0.747842        20.3498 
 139   0.0000       0.770794        20.9744 
 140   0.0000       0.771131        20.9835 
 141   0.0000       0.782697        21.2983 
 142   0.0000       0.811552        22.0834 
 143   0.0000       0.826882        22.5006 
 144   0.0000       0.836171        22.7534 
 145   0.0000       0.849887        23.1266 
 146   0.0000       0.855188        23.2708 
 147   0.0000       0.870712        23.6933 
 148   0.0000       0.906883        24.6775 
 149   0.0000       0.909781        24.7564 
 150   0.0000       0.921377        25.0719 
 151   0.0000       0.934189        25.4206 
 152   0.0000       0.954306        25.9680 
 153   0.0000       0.955270        25.9942 
 154   0.0000       0.961091        26.1526 
 155   0.0000       0.971973        26.4487 
 156   0.0000       0.976325        26.5672 
 157   0.0000       0.985901        26.8277 
 158   0.0000       1.004412        27.3314 
 159   0.0000       1.004495        27.3337 
 160   0.0000       1.006819        27.3969 
 161   0.0000       1.034836        28.1593 
 162   0.0000       1.043553        28.3965 
 163   0.0000       1.062345        28.9079 
 164   0.0000       1.074249        29.2318 
 165   0.0000       1.080761        29.4090 
 166   0.0000       1.085196        29.5297 
 167   0.0000       1.145678        31.1755 
 168   0.0000       1.151970        31.3467 
 169   0.0000       1.160763        31.5860 
 170   0.0000       1.172305        31.9000 
 171   0.0000       1.191842        32.4317 
 172   0.0000       1.200946        32.6794 
 173   0.0000       1.212206        32.9858 
 174   0.0000       1.252498        34.0822 
 175   0.0000       1.265854        34.4456 
 176   0.0000       1.276393        34.7324 
 177   0.0000       1.279209        34.8090 
 178   0.0000       1.280251        34.8374 
 179   0.0000       1.297026        35.2939 
 180   0.0000       1.301562        35.4173 
 181   0.0000       1.358251        36.9599 
 182   0.0000       1.395294        37.9679 
 183   0.0000       1.406652        38.2770 
 184   0.0000       1.473040        40.0835 
 185   0.0000       1.507531        41.0220 
 186   0.0000       1.545361        42.0514 
 187   0.0000       1.586415        43.1685 
 188   0.0000       1.589682        43.2574 
 189   0.0000       1.590839        43.2889 
 190   0.0000       1.617904        44.0254 
 191   0.0000       1.631693        44.4006 
 192   0.0000       1.655418        45.0462 
 193   0.0000       1.657395        45.1000 
 194   0.0000       1.693476        46.0818 
 195   0.0000       1.694406        46.1071 
 196   0.0000       1.706053        46.4241 
 197   0.0000       1.715780        46.6887 
 198   0.0000       1.749241        47.5993 
 199   0.0000       1.763800        47.9954 
 200   0.0000       1.787914        48.6516 
 201   0.0000       1.809728        49.2452 
 202   0.0000       1.810737        49.2726 
 203   0.0000       1.814409        49.3726 
 204   0.0000       1.843201        50.1561 
 205   0.0000       1.850646        50.3586 
 206   0.0000       1.869197        50.8634 
 207   0.0000       1.910189        51.9789 
 208   0.0000       1.934189        52.6320 
 209   0.0000       1.947620        52.9974 
 210   0.0000       1.970858        53.6298 
 211   0.0000       1.974523        53.7295 
 212   0.0000       1.990846        54.1737 
 213   0.0000       2.010847        54.7179 
 214   0.0000       2.032314        55.3021 
 215   0.0000       2.045499        55.6609 
 216   0.0000       2.054213        55.8980 
 217   0.0000       2.110736        57.4360 
 218   0.0000       2.140907        58.2570 
 219   0.0000       2.147574        58.4384 
 220   0.0000       2.168422        59.0058 
 221   0.0000       2.173203        59.1359 
 222   0.0000       2.176563        59.2273 
 223   0.0000       2.206180        60.0332 
 224   0.0000       2.292940        62.3941 
 225   0.0000       2.324100        63.2420 
 226   0.0000       2.332391        63.4676 
 227   0.0000       2.332888        63.4811 
 228   0.0000       2.399177        65.2849 
 229   0.0000       2.429473        66.1093 
 230   0.0000       2.494842        67.8881 
 231   0.0000       2.563577        69.7585 
 232   0.0000       2.590877        70.5013 
 233   0.0000       2.596713        70.6602 
 234   0.0000       2.604650        70.8761 
 235   0.0000       2.627482        71.4974 
 236   0.0000       2.659903        72.3796 
 237   0.0000       2.661451        72.4218 
 238   0.0000       2.673757        72.7566 
 239   0.0000       2.673972        72.7625 
 240   0.0000       2.692276        73.2606 
 241   0.0000       2.773414        75.4684 
 242   0.0000       2.784942        75.7821 
 243   0.0000       2.828963        76.9800 
 244   0.0000       2.839986        77.2800 
 245   0.0000       2.858093        77.7727 
 246   0.0000       2.867864        78.0385 
 247   0.0000       2.884026        78.4783 
 248   0.0000       2.895771        78.7979 
 249   0.0000       2.902074        78.9695 
 250   0.0000       2.933042        79.8121 
 251   0.0000       2.937512        79.9338 
 252   0.0000       2.960635        80.5630 
 253   0.0000       2.978174        81.0402 
 254   0.0000       2.986649        81.2708 
 255   0.0000       3.001794        81.6830 
 256   0.0000       3.010138        81.9100 
 257   0.0000       3.098523        84.3151 
 258   0.0000       3.153362        85.8073 
 259   0.0000       3.188730        86.7698 
 260   0.0000       3.268568        88.9423 
 261   0.0000       3.307662        90.0061 
 262   0.0000       3.308154        90.0194 
 263   0.0000       3.341011        90.9135 
 264   0.0000       3.368426        91.6595 
 265   0.0000       3.454177        93.9929 
 266   0.0000       3.497447        95.1704 
 267   0.0000       3.558731        96.8380 
 268   0.0000       3.593444        97.7826 
 269   0.0000       3.681217       100.1710 
 270   0.0000       3.703965       100.7900 
 271   0.0000       3.753374       102.1345 
 272   0.0000       3.853518       104.8595 
 273   0.0000       3.888760       105.8185 
 274   0.0000       3.891089       105.8819 
 275   0.0000       3.891593       105.8956 
 276   0.0000       3.905849       106.2836 
 277   0.0000       3.924867       106.8011 
 278   0.0000       4.012133       109.1757 
 279   0.0000       4.059459       110.4635 
 280   0.0000       4.120106       112.1138 
 281   0.0000       4.143700       112.7558 
 282   0.0000       4.169090       113.4467 
 283   0.0000       4.405637       119.8835 
 284   0.0000       4.477746       121.8457 
 285   0.0000       4.504190       122.5652 
 286   0.0000       4.761249       129.5602 
 287   0.0000       4.942834       134.5014 
 288   0.0000       5.079211       138.2124 
 289   0.0000       5.116839       139.2363 
 290   0.0000       5.194305       141.3442 
 291   0.0000       5.222442       142.1099 
 292   0.0000       5.314613       144.6180 
 293   0.0000       5.700664       155.1230 
 294   0.0000       6.131010       166.8333 
 295   0.0000       6.408867       174.3941 
 296   0.0000       6.540285       177.9702 
 297   0.0000       6.841669       186.1713 
 298   0.0000       7.979076       217.1217 
 299   0.0000      17.546589       477.4670 
 300   0.0000      17.549919       477.5576 
 301   0.0000      17.639365       479.9915 
 302   0.0000      23.649964       643.5482 
 303   0.0000      23.890417       650.0913 
 304   0.0000      23.984903       652.6624 
 305   0.0000      24.030410       653.9007 
 306   0.0000      24.071081       655.0074 
 307   0.0000      24.181197       658.0038 
 308   0.0000      35.375397       962.6135 
 309   0.0000      35.657132       970.2799 
 310   0.0000      49.901556      1357.8904 
 311   0.0000      49.963675      1359.5807 
 312   0.0000      66.792309      1817.5111 
 313   0.0000     188.968164      5142.0852 

--------------------
FRAGMENT INFORMATION
--------------------
Fragment  1:    0   1   2   3   4   5 
Fragment  2:    6   7   8   9  10  11  12 
Fragment  3:   13  14  15  16 
Fragment  4:   17 


                    ********************************
                    * MULLIKEN POPULATION ANALYSIS *
                    ********************************

-------------------------
MULLIKEN FRAGMENT CHARGES
-------------------------
 Fragment   0 :  -0.458690
 Fragment   1 :   0.460055
 Fragment   2 :  -0.028733
 Fragment   3 :  -0.972632
Sum of fragment charges:   -1.0000000

---------------------------------
MULLIKEN FRAGMENT OVERLAP CHARGES
---------------------------------
                  0          1          2          3    
      0      19.497902   0.564171  -0.000260  -0.001101
      1       0.564171  34.969709   0.000393   0.004139
      2      -0.000260   0.000393  11.658258  -0.684959
      3      -0.001101   0.004139  -0.684959  17.313593

-----------------------
MULLIKEN ATOMIC CHARGES
-----------------------
   0 C :   -0.019492
   1 N :   -0.205560
   2 C :   -0.293216
   3 C :   -0.256925
   4 C :    0.433875
   5 C :   -0.117373
   6 N :   -0.059336
   7 O :   -0.046859
   8 O :   -0.231514
   9 F :   -0.103861
  10 H :    0.295987
  11 H :    0.281285
  12 H :    0.324352
  13 C :   -0.409099
  14 H :    0.126351
  15 H :    0.127115
  16 H :    0.126900
  17 S :   -0.972632
Sum of atomic charges:   -1.0000000

--------------------------------
MULLIKEN REDUCED ORBITAL CHARGES
--------------------------------
  0 C s       :     3.267474  s :     3.267474
      pz      :     0.677808  p :     2.591578
      px      :     0.972926
      py      :     0.940844
      dz2     :     0.052752  d :     0.160440
      dxz     :     0.048838
      dyz     :     0.028439
      dx2y2   :     0.013769
      dxy     :     0.016642
  1 N s       :     3.626457  s :     3.626457
      pz      :     1.142077  p :     3.548576
      px      :     1.241707
      py      :     1.164793
      dz2     :     0.008166  d :     0.030526
      dxz     :     0.007238
      dyz     :     0.004759
      dx2y2   :     0.005505
      dxy     :     0.004858
  2 C s       :     3.376445  s :     3.376445
      pz      :     0.811760  p :     2.832627
      px      :     1.167226
      py      :     0.853641
      dz2     :     0.023580  d :     0.084144
      dxz     :     0.032191
      dyz     :     0.014803
      dx2y2   :     0.007223
      dxy     :     0.006347
  3 C s       :     3.210366  s :     3.210366
      pz      :     1.158004  p :     2.993398
      px      :     0.869508
      py      :     0.965886
      dz2     :     0.015294  d :     0.053161
      dxz     :     0.017411
      dyz     :     0.005092
      dx2y2   :     0.008213
      dxy     :     0.007150
  4 C s       :     2.511914  s :     2.511914
      pz      :     0.905012  p :     2.997125
      px      :     1.247422
      py      :     0.844691
      dz2     :     0.016545  d :     0.057086
      dxz     :     0.015858
      dyz     :     0.010564
      dx2y2   :     0.007213
      dxy     :     0.006906
  5 C s       :     3.305014  s :     3.305014
      pz      :     1.130270  p :     2.739221
      px      :     0.485840
      py      :     1.123111
      dz2     :     0.013631  d :     0.073139
      dxz     :     0.029766
      dyz     :     0.010336
      dx2y2   :     0.011212
      dxy     :     0.008194
  6 N s       :     3.578167  s :     3.578167
      pz      :     1.054747  p :     3.372187
      px      :     1.210069
      py      :     1.107371
      dz2     :     0.027719  d :     0.108981
      dxz     :     0.039363
      dyz     :     0.023075
      dx2y2   :     0.008547
      dxy     :     0.010278
  7 O s       :     3.775492  s :     3.775492
      pz      :     1.027017  p :     4.252667
      px      :     1.827355
      py      :     1.398295
      dz2     :     0.009710  d :     0.018699
      dxz     :     0.003513
      dyz     :     0.005307
      dx2y2   :     0.000102
      dxy     :     0.000067
  8 O s       :     3.820972  s :     3.820972
      pz      :     1.622452  p :     4.398425
      px      :     1.218568
      py      :     1.557405
      dz2     :     0.001058  d :     0.012116
      dxz     :     0.004900
      dyz     :     0.000879
      dx2y2   :     0.003118
      dxy     :     0.002160
  9 F s       :     3.919227  s :     3.919227
      pz      :     1.389290  p :     5.179302
      px      :     1.915670
      py      :     1.874341
      dz2     :     0.003097  d :     0.005332
      dxz     :     0.000998
      dyz     :     0.001201
      dx2y2   :     0.000027
      dxy     :     0.000009
 10 H s       :     0.680114  s :     0.680114
      pz      :     0.005481  p :     0.023900
      px      :     0.014119
      py      :     0.004299
 11 H s       :     0.693753  s :     0.693753
      pz      :     0.016372  p :     0.024962
      px      :     0.003654
      py      :     0.004936
 12 H s       :     0.650125  s :     0.650125
      pz      :     0.007743  p :     0.025523
      px      :     0.013381
      py      :     0.004400
 13 C s       :     3.269712  s :     3.269712
      pz      :     1.060227  p :     3.086768
      px      :     0.999070
      py      :     1.027472
      dz2     :     0.009001  d :     0.052619
      dxz     :     0.005238
      dyz     :     0.015000
      dx2y2   :     0.010453
      dxy     :     0.012927
 14 H s       :     0.850945  s :     0.850945
      pz      :     0.009043  p :     0.022704
      px      :     0.004704
      py      :     0.008957
 15 H s       :     0.850143  s :     0.850143
      pz      :     0.004953  p :     0.022741
      px      :     0.010578
      py      :     0.007211
 16 H s       :     0.850388  s :     0.850388
      pz      :     0.011498  p :     0.022711
      px      :     0.004735
      py      :     0.006479
 17 S s       :     6.017833  s :     6.017833
      pz      :     3.995339  p :    10.923402
      px      :     3.299467
      py      :     3.628597
      dz2     :     0.005602  d :     0.031397
      dxz     :     0.002754
      dyz     :     0.001781
      dx2y2   :     0.005614
      dxy     :     0.015646


                     *******************************
                     * LOEWDIN POPULATION ANALYSIS *
                     *******************************

------------------------
LOEWDIN FRAGMENT CHARGES
------------------------
 Fragment   0 :   0.056870
 Fragment   1 :  -0.057107
 Fragment   2 :  -0.354952
 Fragment   3 :  -0.644811

----------------------------
LOEWDIN FRAGMENT BOND ORDERS
----------------------------
                  0          1          2          3    
      0      56.962310   6.779374   0.000094   0.000434
      1       6.779374  43.788861   0.000262   0.001188
      2       0.000094   0.000262  15.418912   1.742796
      3       0.000434   0.001188   1.742796  16.644811

----------------------
LOEWDIN ATOMIC CHARGES
----------------------
   0 C :    0.111348
   1 N :   -0.111974
   2 C :    0.077188
   3 C :   -0.033830
   4 C :    0.078034
   5 C :   -0.063895
   6 N :    0.240971
   7 O :   -0.153414
   8 O :   -0.338172
   9 F :   -0.078183
  10 H :    0.086980
  11 H :    0.084542
  12 H :    0.100169
  13 C :   -0.358193
  14 H :    0.001078
  15 H :    0.001080
  16 H :    0.001083
  17 S :   -0.644811

-------------------------------
LOEWDIN REDUCED ORBITAL CHARGES
-------------------------------
  0 C s       :     2.743728  s :     2.743728
      pz      :     0.849330  p :     2.815810
      px      :     1.080577
      py      :     0.885903
      dz2     :     0.112514  d :     0.329114
      dxz     :     0.100713
      dyz     :     0.050393
      dx2y2   :     0.033873
      dxy     :     0.031621
  1 N s       :     3.151609  s :     3.151609
      pz      :     1.301225  p :     3.903526
      px      :     1.416928
      py      :     1.185373
      dz2     :     0.017387  d :     0.056839
      dxz     :     0.015718
      dyz     :     0.007794
      dx2y2   :     0.009543
      dxy     :     0.006398
  2 C s       :     2.786873  s :     2.786873
      pz      :     1.032881  p :     2.954094
      px      :     1.096527
      py      :     0.824687
      dz2     :     0.060304  d :     0.181846
      dxz     :     0.069053
      dyz     :     0.027985
      dx2y2   :     0.014016
      dxy     :     0.010487
  3 C s       :     2.781235  s :     2.781235
      pz      :     1.081331  p :     3.128233
      px      :     1.092146
      py      :     0.954756
      dz2     :     0.034120  d :     0.124362
      dxz     :     0.045069
      dyz     :     0.008010
      dx2y2   :     0.022212
      dxy     :     0.014951
  4 C s       :     2.779284  s :     2.779284
      pz      :     1.065894  p :     3.014390
      px      :     1.108281
      py      :     0.840215
      dz2     :     0.040902  d :     0.128292
      dxz     :     0.039165
      dyz     :     0.021252
      dx2y2   :     0.015049
      dxy     :     0.011924
  5 C s       :     2.758052  s :     2.758052
      pz      :     1.088541  p :     3.125521
      px      :     0.957512
      py      :     1.079469
      dz2     :     0.039911  d :     0.180322
      dxz     :     0.071776
      dyz     :     0.019827
      dx2y2   :     0.031415
      dxy     :     0.017394
  6 N s       :     3.052021  s :     3.052021
      pz      :     1.206094  p :     3.500647
      px      :     1.215265
      py      :     1.079289
      dz2     :     0.060436  d :     0.206361
      dxz     :     0.076196
      dyz     :     0.035692
      dx2y2   :     0.017522
      dxy     :     0.016514
  7 O s       :     3.580787  s :     3.580787
      pz      :     1.283593  p :     4.540309
      px      :     1.838809
      py      :     1.417908
      dz2     :     0.020437  d :     0.032318
      dxz     :     0.005157
      dyz     :     0.006535
      dx2y2   :     0.000119
      dxy     :     0.000071
  8 O s       :     3.667051  s :     3.667051
      pz      :     1.709906  p :     4.650634
      px      :     1.369648
      py      :     1.571080
      dz2     :     0.001545  d :     0.020488
      dxz     :     0.009265
      dyz     :     0.001173
      dx2y2   :     0.005712
      dxy     :     0.002792
  9 F s       :     3.714976  s :     3.714976
      pz      :     1.535205  p :     5.355837
      px      :     1.934344
      py      :     1.886287
      dz2     :     0.004766  d :     0.007370
      dxz     :     0.001184
      dyz     :     0.001375
      dx2y2   :     0.000037
      dxy     :     0.000009
 10 H s       :     0.842622  s :     0.842622
      pz      :     0.016676  p :     0.070397
      px      :     0.042289
      py      :     0.011432
 11 H s       :     0.843008  s :     0.843008
      pz      :     0.047832  p :     0.072449
      px      :     0.011211
      py      :     0.013407
 12 H s       :     0.826601  s :     0.826601
      pz      :     0.023097  p :     0.073230
      px      :     0.038720
      py      :     0.011412
 13 C s       :     2.858341  s :     2.858341
      pz      :     1.117932  p :     3.393012
      px      :     1.143919
      py      :     1.131161
      dz2     :     0.018288  d :     0.106840
      dxz     :     0.009856
      dyz     :     0.029501
      dx2y2   :     0.020924
      dxy     :     0.028271
 14 H s       :     0.927191  s :     0.927191
      pz      :     0.028334  p :     0.071731
      px      :     0.014432
      py      :     0.028965
 15 H s       :     0.927059  s :     0.927059
      pz      :     0.014468  p :     0.071861
      px      :     0.035191
      py      :     0.022202
 16 H s       :     0.927190  s :     0.927190
      pz      :     0.036647  p :     0.071727
      px      :     0.014717
      py      :     0.020363
 17 S s       :     5.613232  s :     5.613232
      pz      :     3.936795  p :    10.994452
      px      :     3.402516
      py      :     3.655142
      dz2     :     0.006765  d :     0.037127
      dxz     :     0.003072
      dyz     :     0.002008
      dx2y2   :     0.006419
      dxy     :     0.018864


                      *****************************
                      * MAYER POPULATION ANALYSIS *
                      *****************************

  NA   - Mulliken gross atomic population
  ZA   - Total nuclear charge
  QA   - Mulliken gross atomic charge
  VA   - Mayer's total valence
  BVA  - Mayer's bonded valence
  FA   - Mayer's free valence

  ATOM       NA         ZA         QA         VA         BVA        FA
  0 C      6.0195     6.0000    -0.0195     4.3285     4.3285     0.0000
  1 N      7.2056     7.0000    -0.2056     2.7035     2.7035     0.0000
  2 C      6.2932     6.0000    -0.2932     3.9750     3.9750    -0.0000
  3 C      6.2569     6.0000    -0.2569     4.3344     4.3344     0.0000
  4 C      5.5661     6.0000     0.4339     4.1289     4.1289    -0.0000
  5 C      6.1174     6.0000    -0.1174     3.3966     3.3966     0.0000
  6 N      7.0593     7.0000    -0.0593     3.8990     3.8990     0.0000
  7 O      8.0469     8.0000    -0.0469     2.2026     2.2026    -0.0000
  8 O      8.2315     8.0000    -0.2315     1.9978     1.9978     0.0000
  9 F      9.1039     9.0000    -0.1039     0.9632     0.9632     0.0000
 10 H      0.7040     1.0000     0.2960     0.8713     0.8713     0.0000
 11 H      0.7187     1.0000     0.2813     0.9031     0.9031     0.0000
 12 H      0.6756     1.0000     0.3244     0.8383     0.8383    -0.0000
 13 C      6.4091     6.0000    -0.4091     3.5747     3.5747     0.0000
 14 H      0.8736     1.0000     0.1264     0.9431     0.9431     0.0000
 15 H      0.8729     1.0000     0.1271     0.9424     0.9424     0.0000
 16 H      0.8731     1.0000     0.1269     0.9413     0.9413     0.0000
 17 S     16.9726    16.0000    -0.9726     0.6007     0.6007     0.0000

  Mayer bond orders larger than 0.100000
B(  0-C ,  1-N ) :   1.2873 B(  0-C ,  2-C ) :   0.1874 B(  0-C ,  3-C ) :   0.1527 
B(  0-C ,  4-C ) :   0.3200 B(  0-C ,  5-C ) :   1.1996 B(  0-C ,  6-N ) :  -0.1952 
B(  0-C ,  9-F ) :   1.4023 B(  1-N ,  2-C ) :   1.1842 B(  1-N ,  5-C ) :   0.1866 
B(  2-C ,  3-C ) :   1.5900 B(  2-C , 10-H ) :   0.8839 B(  3-C ,  4-C ) :   1.4680 
B(  3-C ,  8-O ) :   0.1342 B(  3-C , 11-H ) :   0.8437 B(  4-C ,  5-C ) :   1.5884 
B(  4-C ,  6-N ) :  -0.1296 B(  4-C ,  8-O ) :   0.1475 B(  4-C ,  9-F ) :  -0.1210 
B(  4-C , 12-H ) :   0.7600 B(  5-C ,  6-N ) :   0.7390 B(  5-C ,  8-O ) :  -0.1460 
B(  5-C ,  9-F ) :  -0.3527 B(  5-C , 12-H ) :   0.1165 B(  6-N ,  7-O ) :   1.8535 
B(  6-N ,  8-O ) :   1.6543 B(  7-O ,  8-O ) :   0.2569 B( 13-C , 14-H ) :   0.9809 
[...]
 288   0.0000       5.088597       138.4678 
 289   0.0000       5.132230       139.6551 
 290   0.0000       5.203941       141.6064 
 291   0.0000       5.268665       143.3677 
 292   0.0000       5.364835       145.9846 
 293   0.0000       5.835622       158.7953 
 294   0.0000       6.283094       170.9717 
 295   0.0000       6.416861       174.6117 
 296   0.0000       6.550362       178.2444 
 297   0.0000       6.864499       186.7925 
 298   0.0000       7.979175       217.1244 
 299   0.0000      17.546630       477.4681 
 300   0.0000      17.550016       477.5602 
 301   0.0000      17.639488       479.9949 
 302   0.0000      23.710852       645.2051 
 303   0.0000      23.963272       652.0738 
 304   0.0000      24.026533       653.7952 
 305   0.0000      24.030414       653.9008 
 306   0.0000      24.182893       658.0500 
 307   0.0000      24.294846       661.0964 
 308   0.0000      35.414964       963.6902 
 309   0.0000      35.734694       972.3905 
 310   0.0000      49.911560      1358.1626 
 311   0.0000      50.009376      1360.8243 
 312   0.0000      66.806360      1817.8935 
 313   0.0000     188.968285      5142.0885 

--------------------
FRAGMENT INFORMATION
--------------------
Fragment  1:    0   1   2   3   4   5 
Fragment  2:    6   7   8   9  10  11  12 
Fragment  3:   13  14  15  16 
Fragment  4:   17 


                    ********************************
                    * MULLIKEN POPULATION ANALYSIS *
                    ********************************

-------------------------
MULLIKEN FRAGMENT CHARGES
-------------------------
 Fragment   0 :  -0.432153
 Fragment   1 :   0.433426
 Fragment   2 :  -0.029142
 Fragment   3 :  -0.972131
Sum of fragment charges:   -1.0000000

---------------------------------
MULLIKEN FRAGMENT OVERLAP CHARGES
---------------------------------
                  0          1          2          3    
      0      15.901908   0.462485  -0.000190  -0.001183
      1       0.462485  35.107298   0.000374   0.003980
      2      -0.000190   0.000374  11.656682  -0.680651
      3      -0.001183   0.003980  -0.680651  17.311058

-----------------------
MULLIKEN ATOMIC CHARGES
-----------------------
   0 C :    0.047598
   1 N :   -0.192551
   2 C :   -0.304624
   3 C :   -0.309118
   4 C :    0.397535
   5 C :   -0.070993
   6 N :   -0.037202
   7 O :   -0.123454
   8 O :   -0.150428
   9 F :   -0.121112
  10 H :    0.287369
  11 H :    0.284466
  12 H :    0.293786
  13 C :   -0.409524
  14 H :    0.126380
  15 H :    0.126989
  16 H :    0.127013
  17 S :   -0.972131
Sum of atomic charges:   -1.0000000

--------------------------------
MULLIKEN REDUCED ORBITAL CHARGES
--------------------------------
  0 C s       :     3.186490  s :     3.186490
      pz      :     0.675977  p :     2.595243
      px      :     0.977455
      py      :     0.941810
      dz2     :     0.057308  d :     0.170669
      dxz     :     0.050806
      dyz     :     0.029497
      dx2y2   :     0.014704
      dxy     :     0.018354
  1 N s       :     3.610745  s :     3.610745
      pz      :     1.148145  p :     3.547227
      px      :     1.246182
      py      :     1.152900
      dz2     :     0.008808  d :     0.034579
      dxz     :     0.008489
      dyz     :     0.005119
      dx2y2   :     0.006197
      dxy     :     0.005966
  2 C s       :     3.333868  s :     3.333868
      pz      :     0.825464  p :     2.882379
      px      :     1.182447
      py      :     0.874468
      dz2     :     0.025209  d :     0.088377
      dxz     :     0.032890
      dyz     :     0.015747
      dx2y2   :     0.007934
      dxy     :     0.006596
  3 C s       :     3.237174  s :     3.237174
      pz      :     1.154112  p :     3.015827
      px      :     0.893052
      py      :     0.968664
      dz2     :     0.016041  d :     0.056118
      dxz     :     0.018722
      dyz     :     0.005913
      dx2y2   :     0.008032
      dxy     :     0.007410
  4 C s       :     2.537993  s :     2.537993
      pz      :     0.923628  p :     3.002001
      px      :     1.234313
      py      :     0.844060
      dz2     :     0.019033  d :     0.062470
      dxz     :     0.015034
      dyz     :     0.012258
      dx2y2   :     0.008863
      dxy     :     0.007283
  5 C s       :     3.252281  s :     3.252281
      pz      :     1.119638  p :     2.742699
      px      :     0.499896
      py      :     1.123165
      dz2     :     0.013606  d :     0.076014
      dxz     :     0.032045
      dyz     :     0.010942
      dx2y2   :     0.011243
      dxy     :     0.008178
  6 N s       :     3.511443  s :     3.511443
      pz      :     1.062499  p :     3.397566
      px      :     1.220009
      py      :     1.115059
      dz2     :     0.033919  d :     0.128192
      dxz     :     0.042853
      dyz     :     0.026454
      dx2y2   :     0.011307
      dxy     :     0.013658
  7 O s       :     3.791648  s :     3.791648
      pz      :     1.027244  p :     4.313540
      px      :     1.836284
      py      :     1.450011
      dz2     :     0.009686  d :     0.018266
      dxz     :     0.003320
      dyz     :     0.005075
      dx2y2   :     0.000109
      dxy     :     0.000076
  8 O s       :     3.793241  s :     3.793241
      pz      :     1.603679  p :     4.339808
      px      :     1.268271
      py      :     1.467858
      dz2     :     0.001833  d :     0.017379
      dxz     :     0.006350
      dyz     :     0.001492
      dx2y2   :     0.004129
      dxy     :     0.003575
  9 F s       :     3.919152  s :     3.919152
      pz      :     1.399781  p :     5.196729
      px      :     1.918335
      py      :     1.878614
      dz2     :     0.003047  d :     0.005231
      dxz     :     0.000973
      dyz     :     0.001171
      dx2y2   :     0.000029
      dxy     :     0.000010
 10 H s       :     0.689320  s :     0.689320
      pz      :     0.004486  p :     0.023311
      px      :     0.014469
      py      :     0.004356
 11 H s       :     0.690234  s :     0.690234
      pz      :     0.016484  p :     0.025300
      px      :     0.003811
      py      :     0.005005
 12 H s       :     0.677297  s :     0.677297
      pz      :     0.007639  p :     0.028917
      px      :     0.015928
      py      :     0.005349
 13 C s       :     3.270128  s :     3.270128
      pz      :     1.060338  p :     3.086778
      px      :     0.998298
      py      :     1.028142
      dz2     :     0.009050  d :     0.052619
      dxz     :     0.005227
      dyz     :     0.014948
      dx2y2   :     0.010391
      dxy     :     0.013002
 14 H s       :     0.850907  s :     0.850907
      pz      :     0.009051  p :     0.022712
      px      :     0.004694
      py      :     0.008967
 15 H s       :     0.850286  s :     0.850286
      pz      :     0.004932  p :     0.022724
      px      :     0.010528
      py      :     0.007264
 16 H s       :     0.850267  s :     0.850267
      pz      :     0.011508  p :     0.022720
      px      :     0.004735
      py      :     0.006476
 17 S s       :     6.017561  s :     6.017561
      pz      :     3.995274  p :    10.923172
      px      :     3.291861
      py      :     3.636036
      dz2     :     0.005604  d :     0.031398
      dxz     :     0.002785
      dyz     :     0.001748
      dx2y2   :     0.005722
      dxy     :     0.015539


                     *******************************
                     * LOEWDIN POPULATION ANALYSIS *
                     *******************************

------------------------
LOEWDIN FRAGMENT CHARGES
------------------------
 Fragment   0 :   0.058600
 Fragment   1 :  -0.058887
 Fragment   2 :  -0.354964
 Fragment   3 :  -0.644749

----------------------------
LOEWDIN FRAGMENT BOND ORDERS
----------------------------
                  0          1          2          3    
      0      57.151409   6.741695   0.000100   0.000446
      1       6.741695  44.128796   0.000275   0.001241
      2       0.000100   0.000275  15.418872   1.742855
      3       0.000446   0.001241   1.742855  16.644749

----------------------
LOEWDIN ATOMIC CHARGES
----------------------
   0 C :    0.085998
   1 N :   -0.079397
   2 C :    0.060476
   3 C :   -0.026468
   4 C :    0.077633
   5 C :   -0.059641
   6 N :    0.218370
   7 O :   -0.200051
   8 O :   -0.239380
   9 F :   -0.087973
  10 H :    0.083799
  11 H :    0.086887
  12 H :    0.079461
  13 C :   -0.358183
  14 H :    0.001025
  15 H :    0.001169
  16 H :    0.001025
  17 S :   -0.644749

-------------------------------
LOEWDIN REDUCED ORBITAL CHARGES
-------------------------------
  0 C s       :     2.730753  s :     2.730753
      pz      :     0.851380  p :     2.831544
      px      :     1.094705
      py      :     0.885458
      dz2     :     0.122178  d :     0.351706
      dxz     :     0.104393
      dyz     :     0.052223
      dx2y2   :     0.037301
      dxy     :     0.035611
  1 N s       :     3.111051  s :     3.111051
      pz      :     1.299333  p :     3.903486
      px      :     1.430411
      py      :     1.173742
      dz2     :     0.019075  d :     0.064860
      dxz     :     0.018005
      dyz     :     0.008906
      dx2y2   :     0.010889
      dxy     :     0.007986
  2 C s       :     2.774834  s :     2.774834
      pz      :     1.039745  p :     2.972626
      px      :     1.091430
      py      :     0.841452
      dz2     :     0.064081  d :     0.192063
      dxz     :     0.071656
      dyz     :     0.030373
      dx2y2   :     0.015125
      dxy     :     0.010827
  3 C s       :     2.770495  s :     2.770495
      pz      :     1.079309  p :     3.126636
      px      :     1.090423
      py      :     0.956904
      dz2     :     0.035271  d :     0.129337
      dxz     :     0.047503
      dyz     :     0.009147
      dx2y2   :     0.021802
      dxy     :     0.015613
  4 C s       :     2.750034  s :     2.750034
      pz      :     1.090213  p :     3.030210
      px      :     1.101236
      py      :     0.838762
      dz2     :     0.046437  d :     0.142123
      dxz     :     0.040029
      dyz     :     0.024959
      dx2y2   :     0.017687
      dxy     :     0.013011
  5 C s       :     2.745185  s :     2.745185
      pz      :     1.098758  p :     3.126234
      px      :     0.951588
      py      :     1.075888
      dz2     :     0.040640  d :     0.188223
      dxz     :     0.077344
      dyz     :     0.021496
      dx2y2   :     0.031223
      dxy     :     0.017519
  6 N s       :     3.014246  s :     3.014246
      pz      :     1.213241  p :     3.520938
      px      :     1.224571
      py      :     1.083126
      dz2     :     0.072718  d :     0.246446
      dxz     :     0.085991
      dyz     :     0.041565
      dx2y2   :     0.023980
      dxy     :     0.022192
  7 O s       :     3.575150  s :     3.575150
      pz      :     1.280194  p :     4.593093
      px      :     1.846080
      py      :     1.466819
      dz2     :     0.020340  d :     0.031809
      dxz     :     0.004960
      dyz     :     0.006294
      dx2y2   :     0.000133
      dxy     :     0.000082
  8 O s       :     3.584695  s :     3.584695
      pz      :     1.709238  p :     4.624346
      px      :     1.429337
      py      :     1.485771
      dz2     :     0.002785  d :     0.030338
      dxz     :     0.012798
      dyz     :     0.002053
      dx2y2   :     0.007986
      dxy     :     0.004717
  9 F s       :     3.713801  s :     3.713801
      pz      :     1.539908  p :     5.366913
      px      :     1.937365
      py      :     1.889641
      dz2     :     0.004697  d :     0.007259
      dxz     :     0.001170
      dyz     :     0.001342
      dx2y2   :     0.000039
      dxy     :     0.000010
 10 H s       :     0.847491  s :     0.847491
      pz      :     0.014022  p :     0.068711
      px      :     0.042905
      py      :     0.011783
 11 H s       :     0.840784  s :     0.840784
      pz      :     0.047612  p :     0.072329
      px      :     0.011306
      py      :     0.013412
 12 H s       :     0.837674  s :     0.837674
      pz      :     0.022083  p :     0.082866
      px      :     0.046578
      py      :     0.014205
 13 C s       :     2.858351  s :     2.858351
      pz      :     1.118017  p :     3.392992
      px      :     1.144104
      py      :     1.130870
      dz2     :     0.018389  d :     0.106840
      dxz     :     0.009838
      dyz     :     0.029390
      dx2y2   :     0.020820
      dxy     :     0.028404
 14 H s       :     0.927213  s :     0.927213
      pz      :     0.028363  p :     0.071762
      px      :     0.014417
      py      :     0.028982
 15 H s       :     0.927054  s :     0.927054
      pz      :     0.014392  p :     0.071776
      px      :     0.035019
      py      :     0.022365
 16 H s       :     0.927203  s :     0.927203
      pz      :     0.036696  p :     0.071772
      px      :     0.014728
      py      :     0.020348
 17 S s       :     5.613211  s :     5.613211
      pz      :     3.936745  p :    10.994410
      px      :     3.396744
      py      :     3.660921
      dz2     :     0.006767  d :     0.037129
      dxz     :     0.003106
      dyz     :     0.001971
      dx2y2   :     0.006553
      dxy     :     0.018731


                      *****************************
                      * MAYER POPULATION ANALYSIS *
                      *****************************

  NA   - Mulliken gross atomic population
  ZA   - Total nuclear charge
  QA   - Mulliken gross atomic charge
  VA   - Mayer's total valence
  BVA  - Mayer's bonded valence
  FA   - Mayer's free valence

  ATOM       NA         ZA         QA         VA         BVA        FA
  0 C      5.9524     6.0000     0.0476     4.2459     4.2459    -0.0000
  1 N      7.1926     7.0000    -0.1926     2.7314     2.7314    -0.0000
  2 C      6.3046     6.0000    -0.3046     4.0617     4.0617     0.0000
  3 C      6.3091     6.0000    -0.3091     4.4328     4.4328    -0.0000
  4 C      5.6025     6.0000     0.3975     4.2504     4.2504    -0.0000
  5 C      6.0710     6.0000    -0.0710     3.4567     3.4567    -0.0000
  6 N      7.0372     7.0000    -0.0372     3.9870     3.9870     0.0000
  7 O      8.1235     8.0000    -0.1235     2.1360     2.1360     0.0000
  8 O      8.1504     8.0000    -0.1504     2.1405     2.1405    -0.0000
  9 F      9.1211     9.0000    -0.1211     0.9277     0.9277     0.0000
 10 H      0.7126     1.0000     0.2874     0.8711     0.8711    -0.0000
 11 H      0.7155     1.0000     0.2845     0.9025     0.9025     0.0000
 12 H      0.7062     1.0000     0.2938     0.8627     0.8627    -0.0000
 13 C      6.4095     6.0000    -0.4095     3.5751     3.5751    -0.0000
 14 H      0.8736     1.0000     0.1264     0.9431     0.9431     0.0000
 15 H      0.8730     1.0000     0.1270     0.9424     0.9424    -0.0000
 16 H      0.8730     1.0000     0.1270     0.9411     0.9411    -0.0000
 17 S     16.9721    16.0000    -0.9721     0.6006     0.6006     0.0000

  Mayer bond orders larger than 0.100000
B(  0-C ,  1-N ) :   1.3087 B(  0-C ,  2-C ) :   0.1651 B(  0-C ,  3-C ) :   0.1925 
B(  0-C ,  4-C ) :   0.3168 B(  0-C ,  5-C ) :   1.1483 B(  0-C ,  6-N ) :  -0.1838 
B(  0-C ,  9-F ) :   1.3608 B(  1-N ,  2-C ) :   1.1505 B(  1-N ,  5-C ) :   0.2109 
B(  2-C ,  3-C ) :   1.6963 B(  2-C ,  5-C ) :   0.1225 B(  2-C , 10-H ) :   0.8825 
B(  3-C ,  4-C ) :   1.3967 B(  3-C ,  8-O ) :   0.1440 B(  3-C , 11-H ) :   0.8366 
B(  4-C ,  5-C ) :   1.7313 B(  4-C ,  6-N ) :  -0.1041 B(  4-C ,  8-O ) :   0.2202 
B(  4-C ,  9-F ) :  -0.1487 B(  4-C , 12-H ) :   0.7522 B(  5-C ,  6-N ) :   0.6951 
B(  5-C ,  8-O ) :  -0.2081 B(  5-C ,  9-F ) :  -0.3191 B(  5-C , 12-H ) :   0.1281 
B(  6-N ,  7-O ) :   1.8263 B(  6-N ,  8-O ) :   1.8033 B(  7-O ,  8-O ) :   0.2461 
B( 13-C , 14-H ) :   0.9809 B( 13-C , 15-H ) :   0.9833 B( 13-C , 16-H ) :   0.9826 
B( 13-C , 17-S ) :   0.6286 

-------
TIMINGS
-------

Total SCF time: 0 days 0 hours 0 min 15 sec 

Total time                  ....      15.377 sec
Sum of individual times     ....      14.726 sec  ( 95.8%)

Fock matrix formation       ....      12.323 sec  ( 80.1%)
  Split-RI-J                ....       0.744 sec  (  6.0% of F)
  Chain of spheres X        ....       9.163 sec  ( 74.4% of F)
  XC integration            ....       1.215 sec  (  9.9% of F)
    Basis function eval.    ....       0.117 sec  (  9.7% of XC)
    Density eval.           ....       0.202 sec  ( 16.6% of XC)
    XC-Functional eval.     ....       0.171 sec  ( 14.0% of XC)
    XC-Potential eval.      ....       0.081 sec  (  6.7% of XC)
Diagonalization             ....       0.026 sec  (  0.2%)
Density matrix formation    ....       0.010 sec  (  0.1%)
Population analysis         ....       0.080 sec  (  0.5%)
Initial guess               ....       0.040 sec  (  0.3%)
Orbital Transformation      ....       0.000 sec  (  0.0%)
Orbital Orthonormalization  ....       0.020 sec  (  0.1%)
DIIS solution               ....       0.010 sec  (  0.1%)
SOSCF solution              ....       0.086 sec  (  0.6%)
Grid generation             ....       2.150 sec  ( 14.0%)

Maximum memory used throughout the entire SCF-calculation: 68.3 MB

-------------------------   --------------------
FINAL SINGLE POINT ENERGY      -990.257226657259
-------------------------   --------------------

                                *** OPTIMIZATION RUN DONE ***

                            ***************************************
                            *     ORCA property calculations      *
                            ***************************************

                                    ---------------------
                                    Active property flags
                                    ---------------------
   (+) Dipole Moment


------------------------------------------------------------------------------
                       ORCA ELECTRIC PROPERTIES CALCULATION
------------------------------------------------------------------------------

Dipole Moment Calculation                       ... on
Quadrupole Moment Calculation                   ... off
Polarizability Calculation                      ... off
GBWName                                         ... structure_opt.gbw
Electron density                                ... structure_opt.scfp
The origin for moment calculation is the CENTER OF MASS  = (-4.156558, -1.892794  3.408819)

-------------
DIPOLE MOMENT
-------------
                                X             Y             Z
Electronic contribution:     17.52834      15.59986       1.62793
Nuclear contribution   :    -10.06863     -10.32361       4.56244
                        -----------------------------------------
Total Dipole Moment    :      7.45971       5.27625       6.19037
                        -----------------------------------------
Magnitude (a.u.)       :     11.03661
Magnitude (Debye)      :     28.05283



--------------------
Rotational spectrum 
--------------------
 
Rotational constants in cm-1:     0.040648     0.007224     0.007156 
Rotational constants in MHz :  1218.607201   216.582350   214.538010 

 Dipole components along the rotational axes: 
x,y,z [a.u.] :    10.735107     2.318051    -1.091266 
x,y,z [Debye]:    27.286473     5.892016    -2.773777 

 

Timings for individual modules:

Sum of individual times         ...     1008.228 sec (=  16.804 min)
GTO integral calculation        ...       65.717 sec (=   1.095 min)   6.5 %
SCF iterations                  ...      777.879 sec (=  12.965 min)  77.2 %
SCF Gradient evaluation         ...      163.713 sec (=   2.729 min)  16.2 %
Geometry relaxation             ...        0.920 sec (=   0.015 min)   0.1 %
                             ****ORCA TERMINATED NORMALLY****
TOTAL RUN TIME: 0 days 0 hours 17 minutes 50 seconds 882 msec
