
                                 *****************
                                 * O   R   C   A *
                                 *****************

                                            #,                                       
                                            ###                                      
                                            ####                                     
                                            #####                                    
                                            ######                                   
                                           ########,                                 
                                     ,,################,,,,,                         
                               ,,#################################,,                 
                          ,,##########################################,,             
                       ,#########################################, ''#####,          
                    ,#############################################,,   '####,        
                  ,##################################################,,,,####,       
                ,###########''''           ''''###############################       
              ,#####''   ,,,,##########,,,,          '''####'''          '####       
            ,##' ,,,,###########################,,,                        '##       
           ' ,,###''''                  '''############,,,                           
         ,,##''                                '''############,,,,        ,,,,,,###''
      ,#''                                            '''#######################'''  
     '                                                          ''''####''''         
             ,#######,   #######,   ,#######,      ##                                
            ,#'     '#,  ##    ##  ,#'     '#,    #''#        ######   ,####,        
            ##       ##  ##   ,#'  ##            #'  '#       #        #'  '#        
            ##       ##  #######   ##           ,######,      #####,   #    #        
            '#,     ,#'  ##    ##  '#,     ,#' ,#      #,         ##   #,  ,#        
             '#######'   ##     ##  '#######'  #'      '#     #####' # '####'        



                  #######################################################
                  #                        -***-                        #
                  #          Department of theory and spectroscopy      #
                  #    Directorship and core code : Frank Neese         #
                  #        Max Planck Institute fuer Kohlenforschung    #
                  #                Kaiser Wilhelm Platz 1               #
                  #                 D-45470 Muelheim/Ruhr               #
                  #                      Germany                        #
                  #                                                     #
                  #                  All rights reserved                #
                  #                        -***-                        #
                  #######################################################


                         Program Version 5.0.1 -  RELEASE  -


 With contributions from (in alphabetic order):
   Daniel Aravena         : Magnetic Suceptibility
   Michael Atanasov       : Ab Initio Ligand Field Theory (pilot matlab implementation)
   Alexander A. Auer      : GIAO ZORA, VPT2 properties, NMR spectrum
   Ute Becker             : Parallelization
   Giovanni Bistoni       : ED, misc. LED, open-shell LED, HFLD
   Martin Brehm           : Molecular dynamics
   Dmytro Bykov           : SCF Hessian
   Vijay G. Chilkuri      : MRCI spin determinant printing, contributions to CSF-ICE
   Dipayan Datta          : RHF DLPNO-CCSD density
   Achintya Kumar Dutta   : EOM-CC, STEOM-CC
   Dmitry Ganyushin       : Spin-Orbit,Spin-Spin,Magnetic field MRCI
   Miquel Garcia          : C-PCM and meta-GGA Hessian, CC/C-PCM, Gaussian charge scheme
   Yang Guo               : DLPNO-NEVPT2, F12-NEVPT2, CIM, IAO-localization
   Andreas Hansen         : Spin unrestricted coupled pair/coupled cluster methods
   Benjamin Helmich-Paris : MC-RPA, TRAH-SCF, COSX integrals
   Lee Huntington         : MR-EOM, pCC
   Robert Izsak           : Overlap fitted RIJCOSX, COSX-SCS-MP3, EOM
   Marcus Kettner         : VPT2
   Christian Kollmar      : KDIIS, OOCD, Brueckner-CCSD(T), CCSD density, CASPT2, CASPT2-K
   Simone Kossmann        : Meta GGA functionals, TD-DFT gradient, OOMP2, MP2 Hessian
   Martin Krupicka        : Initial AUTO-CI
   Lucas Lang             : DCDCAS
   Marvin Lechner         : AUTO-CI (C++ implementation), FIC-MRCC
   Dagmar Lenk            : GEPOL surface, SMD
   Dimitrios Liakos       : Extrapolation schemes; Compound Job, initial MDCI parallelization
   Dimitrios Manganas     : Further ROCIS development; embedding schemes
   Dimitrios Pantazis     : SARC Basis sets
   Anastasios Papadopoulos: AUTO-CI, single reference methods and gradients
   Taras Petrenko         : DFT Hessian,TD-DFT gradient, ASA, ECA, R-Raman, ABS, FL, XAS/XES, NRVS
   Peter Pinski           : DLPNO-MP2, DLPNO-MP2 Gradient
   Christoph Reimann      : Effective Core Potentials
   Marius Retegan         : Local ZFS, SOC
   Christoph Riplinger    : Optimizer, TS searches, QM/MM, DLPNO-CCSD(T), (RO)-DLPNO pert. Triples
   Tobias Risthaus        : Range-separated hybrids, TD-DFT gradient, RPA, STAB
   Michael Roemelt        : Original ROCIS implementation
   Masaaki Saitow         : Open-shell DLPNO-CCSD energy and density
   Barbara Sandhoefer     : DKH picture change effects
   Avijit Sen             : IP-ROCIS
   Kantharuban Sivalingam : CASSCF convergence, NEVPT2, FIC-MRCI
   Bernardo de Souza      : ESD, SOC TD-DFT
   Georgi Stoychev        : AutoAux, RI-MP2 NMR, DLPNO-MP2 response
   Willem Van den Heuvel  : Paramagnetic NMR
   Boris Wezisla          : Elementary symmetry handling
   Frank Wennmohs         : Technical directorship


 We gratefully acknowledge several colleagues who have allowed us to
 interface, adapt or use parts of their codes:
   Stefan Grimme, W. Hujo, H. Kruse, P. Pracht,  : VdW corrections, initial TS optimization,
                  C. Bannwarth, S. Ehlert          DFT functionals, gCP, sTDA/sTD-DF
   Ed Valeev, F. Pavosevic, A. Kumar             : LibInt (2-el integral package), F12 methods
   Garnet Chan, S. Sharma, J. Yang, R. Olivares  : DMRG
   Ulf Ekstrom                                   : XCFun DFT Library
   Mihaly Kallay                                 : mrcc  (arbitrary order and MRCC methods)
   Jiri Pittner, Ondrej Demel                    : Mk-CCSD
   Frank Weinhold                                : gennbo (NPA and NBO analysis)
   Christopher J. Cramer and Donald G. Truhlar   : smd solvation model
   Lars Goerigk                                  : TD-DFT with DH, B97 family of functionals
   V. Asgeirsson, H. Jonsson                     : NEB implementation
   FAccTs GmbH                                   : IRC, NEB, NEB-TS, DLPNO-Multilevel, CI-OPT
                                                   MM, QMMM, 2- and 3-layer-ONIOM, Crystal-QMMM,
                                                   LR-CPCM, SF, NACMEs, symmetry and pop. for TD-DFT,
                                                   nearIR, NL-DFT gradient (VV10), updates on ESD,
                                                   ML-optimized integration grids
   S Lehtola, MJT Oliveira, MAL Marques          : LibXC Library
   Liviu Ungur et al                             : ANISO software


 Your calculation uses the libint2 library for the computation of 2-el integrals
 For citations please refer to: http://libint.valeyev.net

 Your ORCA version has been built with support for libXC version: 5.1.0
 For citations please refer to: https://tddft.org/programs/libxc/

 This ORCA versions uses:
   CBLAS   interface :  Fast vector & matrix operations
   LAPACKE interface :  Fast linear algebra routines
   SCALAPACK package :  Parallel linear algebra routines
   Shared memory     :  Shared parallel matrices
   BLAS/LAPACK       :  OpenBLAS 0.3.15  USE64BITINT DYNAMIC_ARCH NO_AFFINITY SkylakeX SINGLE_THREADED
        Core in use  :  SkylakeX
   Copyright (c) 2011-2014, The OpenBLAS Project




***************************************
The coordinates will be read from file: structure_opt.xyz
***************************************


Your calculation utilizes the atom-pairwise dispersion correction
based on tight binding partial charges (D4)
Cite in your paper:
E.Caldeweyher, C.Bannwarth, S.Grimme, J.Chem.Phys., (2017), 147, 034112.
E.Caldeweyher, S.Ehlert, A.Hansen, H.Neugebauer, S.Grimme, J.Chem.Phys., (2018), in progress.
   

Your calculation utilizes the SMD solvation module
Please cite in your paper:
A.V. Marenich, C.J. Cramer, D.G. Truhlar J. Phys. Chem. B, 113, (2009), 6378 

XCFun DFT library Copyright 2009-2010 Ulf Ekstrom and contributors.
See http://admol.org/xcfun for more information.
This is free software; see the source code for copying conditions.
There is ABSOLUTELY NO WARRANTY; not even for MERCHANTABILITY or FITNESS FOR A PARTICULAR PURPOSE.
For details see the documentation.
Scientific users of this library should cite U. Ekstrom, L. Visscher, R. Bast, A. J. Thorvaldsen and K. Ruud;
J.Chem.Theor.Comp. 2010, DOI: 10.1021/ct100117s
XCFun Version 0.99 

Your calculation utilizes a Nudged-Elastic-Band implementation
 by V.Asgeirsson, C. Riplinger & H. Jonsson
Please cite in your paper:
 V. Asgeirsson et al., in prep. (2019)
   

================================================================================

----- Orbital basis set information -----
Your calculation utilizes the basis: 6-311++G**
   H, Li - Ne  : R. Krishnan, J. S. Binkley, R. Seeger and J. A. Pople, J. Chem. Phys. 72, 650 (1980).
   Na - Ar     : A. D. McLean and G. S. Chandler J. Chem. Phys. 72, 5639, (1980).
   K  - Ca     : J.-P. Blaudeau, M. P. McGrath, L. A. Curtiss and L. Radom, J. Chem. Phys. 107, 5016 (1997).
   Ga - Kr     : L. A. Curtiss, M. P. McGrath, J.-P. Blandeau, N. E. Davis, R. C. Binning and L. Radom, J. Chem. Phys. 103, 6104 (1995).
   Pol./Diff.
   H, Li - Cl  : T. Clark, J. Chandrasekhar and P. v. R. Schleyer, J. Comp. Chem. 4, 294 (1983).
   H - Ne      : M. J. Frisch, J. A. Pople and J. S. Binkley, J. Chem. Phys. 80, 3265 (1984).

----- AuxJ basis set information -----
Your calculation utilizes the auxiliary basis: def2/J
   F. Weigend, Phys. Chem. Chem. Phys. 8, 1057 (2006).

================================================================================
                                        WARNINGS
                       Please study these warnings very carefully!
================================================================================


WARNING: The environment variable RSH_COMMAND is not set!
  ===> : All Displacements for the Numerical Hessian calculation
         will be started on localhost

WARNING: Geometry Optimization
  ===> : Switching off AutoStart
         For restart on a previous wavefunction, please use MOREAD

INFO   : the flag for use of the SHARK integral package has been found!

================================================================================
                                       INPUT FILE
================================================================================
NAME = TS_search_opt_without_h.inp
|  1> !wb97x 6-311++G** D4 NEB-TS OPT NUMFREQ CPCM(WATER)
|  2> %maxcore  3500
|  3> %pal
|  4> nprocs 24
|  5> end
|  6> %cpcm
|  7> smd true
|  8> SMDsolvent "water"
|  9> end
| 10> %geom
| 11> MaxIter 1000   # allows for n optimization cycles
| 12> EnforceStrictConvergence False
| 13> end
| 14> %NEB NEB_END_XYZFILE "2f3_prod_opt.xyz" END
| 15> * XYZfile -1 1 structure_opt.xyz
| 16> 
| 17>                          ****END OF INPUT****
================================================================================


------------------------------------------------------------------------------- 
                         Nudged Elastic Band Calculation                       
------------------------------------------------------------------------------- 

Number of images (incl. end points)     ....  10
Number of intermediate images           ....  8
Number of optimized images              ....  8
Optimization of end points before NEB   ....  NO
Use existing gbw files for MO input     ....  NO
Number of atoms                         ....  18
Number of (active) degrees of freedom   ....  54
Constrained atoms                       ....  None

-----------------------------------------
  REACTANT (ANGSTROEM)
-----------------------------------------
C     -0.010074    -0.014911     1.853858 
N      1.114423    -0.210205     2.467535 
C      1.186800    -0.219927     3.803431 
C      0.083489    -0.027516     4.603537 
C     -1.112502     0.179993     3.947267 
C     -1.195335     0.191730     2.593359 
N     -2.462344     0.412500     1.944411 
O     -2.556055     0.427667     0.700053 
O     -3.507164     0.595266     2.627517 
F     -0.019639    -0.014338     0.503892 
H      2.171802    -0.389166     4.224078 
H      0.149226    -0.038348     5.683105 
H     -2.030445     0.340238     4.389256 
C     -7.085360    -5.151656     0.014799 
H     -7.001538    -5.916083    -0.762709 
H     -7.977309    -4.547661    -0.173101 
H     -7.185511    -5.643937     0.986071 
S     -5.618462    -4.102645     0.006641 

-----------------------------------------
  PRODUCT (ANGSTROEM)
-----------------------------------------
C     -0.006655     0.014080     1.789576 
N      1.150760    -0.163122     2.425247 
C      1.177726    -0.139964     3.759145 
C      0.054738     0.057580     4.546999 
C     -1.158972     0.233636     3.911162 
C     -1.178720     0.217442     2.525234 
N     -2.493686     0.427964     1.904940 
O     -2.584738     1.164910     0.947848 
O     -3.439094    -0.145340     2.414303 
F      3.139899     2.499865     0.919104 
H      2.152169    -0.281946     4.215772 
H      0.130494     0.071637     5.627108 
H     -2.077395     0.389730     4.465403 
C      0.049505     1.625975    -0.482258 
H     -0.875798     2.113075    -0.187252 
H      0.131238     1.624494    -1.570971 
H      0.921382     2.132605    -0.060262 
S      0.064147    -0.119619     0.009902 



----------------------
NEB settings
----------------------
Method type                             ....  climbing image
Threshold for climbing image            ....  2.00e-02 Eh/Bohr 
Free endpoints                          ....  off 
Tangent type                            ....  improved 
Number of intermediate images           ....  8 
Number of images free to move           ....  8 
Spring type for image distribution      ....  distance between adjacent images 
Spring constant                         ....  energy weighted (0.0100 -to- 0.1000) Eh/Bohr^2 
Spring force perp. to the path          ....  none 
Generation of initial path              ....  image dependent pair potential 
Initial path via TS guess               ....  off 

Minimization of RMSD: Rotation          ....  always 
Minimization of RMSD: Translation type  ....  centroid 
Center fixed to origin                  ....  true 
Remove external force                   ....  true 

Reparametrization of the path           ....  off 
Convergence thresholds:
Convergence monitored for               ....  all images
Scaling factor                          ....  10.00

Convergence parameters for regular images:
               Max(|Fp|)                ....  2.00e-02 Eh/Bohr
               RMS(Fp)                  ....  1.00e-02 Eh/Bohr

Convergence parameters for climbing image:
               Max(|F|)                 ....  2.00e-03 Eh/Bohr
               RMS(F)                   ....  1.00e-03 Eh/Bohr
Optimization method:
Method                                  ....  L-BFGS
Max. iterations                         ....  500 
Step size                               ....  1.00 
Maximum allowed step size               ....  0.10 Bohr

LBFGS parameters: 
               Memory                   ....  20 
               Initial step size        ....  0.0010 
               Estimate curvature       ....  YES 
               Reset on maxmove         ....  YES 
               Reparam. on reset        ....  NO 
Generation of  the initial path:
Minimize RMSD between reactant and product configurations     .... done
       RMSD before minimization         ....  5.7412 Bohr
       RMSD after minimization          ....  3.2210 Bohr
Performing linear interpolation         ....  done
Interpolation using                     ....  IDPP (Image Dependent Pair Potential)
IDPP-Settings:
       Remove global transl. and rot.   ...   true
       Convergence tolerance            ....  0.0100 1/Ang.^3
       Max. numer of iterations         ....    7000
       Spring constant                  ....  1.0000 1/Ang.^4
       Time step                        ....  0.0100 fs
       Max. movement per iteration      ....  0.0500 Ang.
       Full print                       ....  false 
idpp initial path generation successfully converged in 67 iterations
Displacement along initial path:             25.3192 Bohr
Writing initial trajectory to file      ....  TS_search_opt_without_h_initial_path_trj.xyz



----------------------
NEB OPTIMIZATION      
----------------------

Following output files will be written:
Energy profile during opt. written to    ....  TS_search_opt_without_h.interp
Optimization log-file                    ....  TS_search_opt_without_h.NEB.log
Current trajectory will be written to    ....  TS_search_opt_without_h_MEP_trj.xyz
       and to allxyz file                ....  TS_search_opt_without_h_MEP.allxyz
       and individual images to xyz file ....  TS_search_opt_without_h_im{NIm}.xyz
Trajectory history will be written to    ....  TS_search_opt_without_h_MEP_ALL_trj.xyz
Converged CI will be written to          ....  TS_search_opt_without_h_NEB-CI_converged.xyz
Converged TS will be written to          ....  TS_search_opt_without_h_NEB-TS_converged.xyz

Single point energy and gradient calculation of reactant and
product configurations (have to be performed only once)
Properties of fixed NEB end points:
               Reactant:
                         E               ....   -990.259704 Eh
                         RMS(F)          ....      0.017180 Eh/Bohr
                         MAX(|F|)        ....      0.068907 Eh/Bohr
      Warning: Reactant seems to be less converged than convergence tolerances.
               You might want to use free end NEB or preopt_ends true.
               Product:
                         E               ....   -990.305524 Eh
                         RMS(F)          ....      0.001261 Eh/Bohr
                         MAX(|F|)        ....      0.004161 Eh/Bohr



Starting iterations:

Optim.  Iteration  HEI  E(HEI)-E(0)  max(|Fp|)   RMS(Fp)    dS
Switch-on CI threshold               0.020000 
   LBFGS     0      4    0.172977    0.114586   0.019989  25.3192       
   LBFGS     1      5    0.154174    0.080324   0.009640  25.3179       
   LBFGS     2      5    0.152222    0.085130   0.012585  25.3227       
   LBFGS     3      5    0.149414    0.079399   0.009997  25.3168       
   LBFGS     4      5    0.150643    0.090803   0.012167  25.3254       
   LBFGS     5      5    0.151547    0.111765   0.013619  25.3436       
   LBFGS     6      5    0.143627    0.065967   0.007272  25.3492       
   LBFGS     7      5    0.145652    0.070805   0.010141  25.3578       
   LBFGS     8      5    0.146298    0.083713   0.012109  25.3834       
   LBFGS     9      5    0.143231    0.052520   0.006873  25.3851       
   LBFGS    10      5    0.143710    0.051060   0.007933  25.3963       
   LBFGS    11      5    0.144953    0.061657   0.009653  25.4239       
   LBFGS    12      5    0.146302    0.108431   0.012428  25.4467       
   LBFGS    13      5    0.141983    0.041766   0.007675  25.4546       
   LBFGS    14      5    0.140986    0.038278   0.007131  25.4880       
   LBFGS    15      5    0.140948    0.049506   0.008769  25.5142       
   LBFGS    16      5    0.141153    0.045918   0.009100  25.5503       
   LBFGS    17      5    0.141039    0.047583   0.009338  25.6053       
   LBFGS    18      5    0.140140    0.035486   0.007342  25.6329       
   LBFGS    19      5    0.139846    0.035250   0.005916  25.6543       
   LBFGS    20      5    0.139540    0.034010   0.005483  25.7130       
   LBFGS    21      5    0.139859    0.050548   0.008297  25.7687       
   LBFGS    22      5    0.139811    0.043634   0.008046  25.8365       
   LBFGS    23      5    0.139572    0.041303   0.007767  25.9148       
   LBFGS    24      5    0.138728    0.033551   0.005296  25.9409       
   LBFGS    25      5    0.138593    0.022796   0.004548  25.9633       
   LBFGS    26      5    0.138500    0.038468   0.005379  26.0406       
   LBFGS    27      5    0.138182    0.059351   0.005771  26.0717       
   LBFGS    28      5    0.138126    0.025803   0.004600  26.0958       
   LBFGS    29      5    0.138262    0.028007   0.005423  26.1739       
   LBFGS    30      5    0.137625    0.019693   0.004041  26.1998       

Image  5 will be converted to a climbing image in the next iteration (max(|Fp|) < 0.0200) 

Optim.  Iteration  CI   E(CI)-E(0)   max(|Fp|)   RMS(Fp)    dS     max(|FCI|)   RMS(FCI)
Convergence thresholds               0.020000   0.010000            0.002000    0.001000 
   LBFGS    31      5    0.137478    0.019424   0.003168  26.2065    0.004597    0.001707       
   LBFGS    32      5    0.137520    0.023903   0.005035  26.2680    0.013293    0.003552       
   LBFGS    33      5    0.137624    0.043106   0.006932  26.3518    0.020817    0.005235       
   LBFGS    34      5    0.136906    0.033735   0.003875  26.3708    0.009024    0.002219       

Possible intermediate minimum found at image(s): 1 
  => have a look at the .interp file.
  => it is often a good idea to divide the path calculation into smaller fragments. 

   LBFGS    35      5    0.136827    0.017292   0.002956  26.3862    0.005053    0.001668       
   LBFGS    36      5    0.136943    0.052306   0.005798  26.4712    0.014351    0.004563       
   LBFGS    37      5    0.136914    0.073769   0.007402  26.5696    0.018878    0.005680       
   LBFGS    38      5    0.136267    0.028746   0.003359  26.5806    0.010031    0.002527       
   LBFGS    39      5    0.136143    0.016341   0.002275  26.5900    0.004185    0.001263       
   LBFGS    40      5    0.136233    0.026600   0.004140  26.6583    0.016043    0.003914       
   LBFGS    41      5    0.136348    0.047212   0.006017  26.7596    0.024329    0.005855       
   LBFGS    42      5    0.135586    0.027079   0.003148  26.7713    0.012031    0.002782       
   LBFGS    43      5    0.135436    0.014114   0.001968  26.7805    0.004443    0.001351       
   LBFGS    44      5    0.135428    0.014924   0.003039  26.8217    0.008147    0.002940       
   LBFGS    45      5    0.135565    0.040379   0.005725  26.9398    0.019207    0.005854       
   LBFGS    46      5    0.135493    0.054264   0.007028  27.0793    0.025893    0.007362       
   LBFGS    47      5    0.134351    0.014613   0.002508  27.0857    0.009201    0.002867       
   LBFGS    48      5    0.134151    0.010870   0.001523  27.0935    0.005131    0.001308       
   LBFGS    49      5    0.134032    0.009676   0.001998  27.1216    0.005588    0.002050       
   LBFGS    50      5    0.133992    0.017183   0.003569  27.1957    0.015053    0.004713       
   LBFGS    51      5    0.133469    0.027878   0.005052  27.3373    0.015859    0.005865       
   LBFGS    52      5    0.132537    0.020205   0.002472  27.3388    0.009359    0.002659       
   LBFGS    53      5    0.132350    0.008175   0.001254  27.3410    0.006017    0.001447       
   LBFGS    54      5    0.132220    0.008309   0.001532  27.3491    0.006102    0.001886       
   LBFGS    55      5    0.131801    0.018542   0.002895  27.3864    0.009773    0.003433       
   LBFGS    56      5    0.130668    0.032761   0.004550  27.4968    0.018475    0.005529       
   LBFGS    57      5    0.128995    0.039783   0.005528  27.6334    0.017739    0.005719       
   LBFGS    58      5    0.128128    0.021104   0.002803  27.6264    0.007803    0.002963       
   LBFGS    59      5    0.127866    0.009991   0.001575  27.6241    0.007528    0.001941       
   LBFGS    60      5    0.127481    0.006270   0.001261  27.6267    0.007641    0.001982       
   LBFGS    61      5    0.126931    0.009902   0.001624  27.6353    0.007803    0.002293       
   LBFGS    62      5    0.124929    0.016882   0.002426  27.6779    0.008157    0.002246       
   LBFGS    63      5    0.122135    0.023612   0.003115  27.7597    0.011632    0.003272       
   LBFGS    64      5    0.122035    0.040127   0.003918  27.7441    0.020524    0.005455       
   LBFGS    65      5    0.121305    0.014338   0.001650  27.7380    0.008401    0.002225       

Possible intermediate minimum found at image(s): 1 
  => have a look at the .interp file.
  => it is often a good idea to divide the path calculation into smaller fragments. 

   LBFGS    66      5    0.120863    0.015351   0.001743  27.7419    0.008477    0.002150       
   LBFGS    67      5    0.120160    0.018656   0.002200  27.7536    0.010418    0.003118       
   LBFGS    68      5    0.117475    0.038939   0.004048  27.8182    0.011961    0.003399       
   LBFGS    69      5    0.117117    0.026867   0.003220  27.8167    0.009046    0.002775       
   LBFGS    70      5    0.116844    0.019484   0.002379  27.8180    0.009044    0.002691       
   LBFGS    71      5    0.115627    0.007813   0.001643  27.8422    0.009072    0.002690       
   LBFGS    72      5    0.114186    0.020431   0.002645  27.8829    0.008885    0.002977       
   LBFGS    73      5    0.111174    0.032237   0.003691  27.9838    0.008709    0.002891       
   LBFGS    74      5    0.110754    0.031384   0.003581  27.9656    0.008805    0.002736       
   LBFGS    75      5    0.110368    0.020926   0.002494  27.9569    0.008809    0.002636       
   LBFGS    76      5    0.108861    0.009208   0.001937  27.9666    0.008808    0.002611       
   LBFGS    77      5    0.107379    0.017708   0.002805  27.9980    0.008841    0.002683       
   LBFGS    78      5    0.103135    0.037203   0.004857  28.1144    0.012465    0.003499       
   LBFGS    79      5    0.102576    0.026804   0.003735  28.1016    0.009127    0.002954       
   LBFGS    80      5    0.102097    0.021898   0.002853  28.0948    0.009132    0.002962       
   LBFGS    81      5    0.100475    0.016318   0.002176  28.0942    0.009205    0.002757       
   LBFGS    82      5    0.099536    0.038214   0.003887  28.0904    0.009289    0.002803       
   LBFGS    83      5    0.098505    0.030738   0.003298  28.0875    0.009368    0.002846       
   LBFGS    84      5    0.093330    0.017498   0.002913  28.1330    0.009573    0.003004       
   LBFGS    85      5    0.091866    0.042580   0.005186  28.1814    0.009661    0.003101       
   LBFGS    86      5    0.090674    0.014147   0.002231  28.2027    0.009751    0.003094       
   LBFGS    87      5    0.089685    0.012318   0.002348  28.1998    0.009858    0.003131       
   LBFGS    88      5    0.085084    0.036140   0.005383  28.2299    0.010448    0.003451       
   LBFGS    89      5    0.080092    0.044773   0.006898  28.3120    0.010949    0.003770       
   LBFGS    90      5    0.079396    0.025644   0.003418  28.3046    0.011008    0.003582       
   LBFGS    91      5    0.078730    0.015939   0.002633  28.3045    0.011086    0.003619       
   LBFGS    92      5    0.074286    0.046932   0.004713  28.3373    0.011392    0.003781       
   LBFGS    93      5    0.071564    0.028176   0.004066  28.3450    0.011438    0.003862       
   LBFGS    94      5    0.064366    0.029934   0.004911  28.4166    0.011428    0.004059       
   LBFGS    95      5    0.063189    0.025493   0.003900  28.4197    0.011486    0.004086       
   LBFGS    96      5    0.062062    0.016280   0.003256  28.4321    0.011552    0.004144       
   LBFGS    97      5    0.053969    0.034827   0.004623  28.5923    0.012051    0.004477       
   LBFGS    98      5    0.051202    0.020254   0.003225  28.5991    0.012196    0.004532       
   LBFGS    99      5    0.048828    0.016457   0.002852  28.6313    0.012529    0.004584       
   LBFGS   100      5    0.040096    0.046959   0.005003  28.7859    0.013979    0.004799       
   LBFGS   101      5    0.038376    0.026922   0.003885  28.7959    0.014130    0.004768       
   LBFGS   102      5    0.036937    0.019827   0.003089  28.8134    0.014054    0.004749       
   LBFGS   103      5    0.027741    0.027782   0.004058  28.9896    0.013213    0.004568       
   LBFGS   104      5    0.024667    0.026046   0.004188  28.9967    0.012885    0.004461       
   LBFGS   105      5    0.023232    0.018497   0.002542  29.0215    0.012536    0.004382       
   LBFGS   106      5    0.020137    0.029571   0.004282  29.0909    0.012187    0.004274       
   LBFGS   107      5    0.013744    0.048952   0.006856  29.2702    0.011544    0.004110       
   LBFGS   108      5    0.012622    0.028317   0.003631  29.2287    0.012572    0.004061       
   LBFGS   109      5    0.011928    0.007926   0.001935  29.2438    0.013177    0.004077       
   LBFGS   110      4    0.015333    0.027674   0.003490  29.3479    0.047090    0.012852       

Possible intermediate minimum found at image(s): 2 
  => have a look at the .interp file.
  => it is often a good idea to divide the path calculation into smaller fragments. 

   LBFGS   111      4    0.012625    0.028072   0.003393  29.3938    0.025018    0.007431       
   LBFGS   112      4    0.010858    0.018956   0.002809  29.4864    0.011087    0.003309       
   LBFGS   113      4    0.011155    0.048246   0.004126  29.5563    0.026607    0.007076       
   LBFGS   114      4    0.010083    0.020163   0.002730  29.6014    0.011685    0.003759       
   LBFGS   115      4    0.010256    0.037819   0.003912  29.6767    0.023684    0.006601       
   LBFGS   116      4    0.009743    0.048968   0.004681  29.7914    0.026994    0.007264       
   LBFGS   117      4    0.009013    0.028645   0.003648  29.7818    0.018717    0.005819       
   LBFGS   118      4    0.008381    0.009654   0.001868  29.7892    0.006313    0.002632       
   LBFGS   119      4    0.008275    0.022596   0.003251  29.8619    0.015756    0.004926       
   LBFGS   120      4    0.008229    0.036094   0.005021  30.0366    0.025060    0.007591       
   LBFGS   121      4    0.007126    0.020759   0.002751  30.0375    0.011953    0.003984       
   LBFGS   122      4    0.006776    0.017606   0.001818  30.0643    0.004384    0.001853       
   LBFGS   123      4    0.006943    0.027728   0.003213  30.2137    0.018874    0.005478       
   LBFGS   124      4    0.006620    0.020962   0.002899  30.2594    0.015128    0.004850       
   LBFGS   125      4    0.006343    0.018074   0.002323  30.2954    0.012151    0.004070       
   LBFGS   126      4    0.005374    0.018918   0.001793  30.5107    0.004306    0.001842       
   LBFGS   127      4    0.005351    0.024160   0.003750  30.5202    0.012440    0.003734       
   LBFGS   128      4    0.004946    0.019449   0.001970  30.5581    0.004981    0.001815       
   LBFGS   129      4    0.004520    0.019745   0.003504  30.7475    0.008335    0.002813       
   LBFGS   130      4    0.004935    0.044044   0.006204  30.7973    0.020545    0.006069       
   LBFGS   131      4    0.004245    0.023380   0.002912  30.7899    0.008319    0.002618       
   LBFGS   132      4    0.004129    0.021477   0.001838  30.8014    0.003212    0.001488       
   LBFGS   133      4    0.004086    0.016411   0.001910  30.8444    0.004557    0.001920       
   LBFGS   134      4    0.003829    0.019351   0.002519  31.0078    0.006139    0.002289       
   LBFGS   135      4    0.003727    0.015546   0.002042  31.0088    0.006249    0.002081       
   LBFGS   136      4    0.003629    0.010979   0.001632  31.0225    0.005319    0.001867       
   LBFGS   137      4    0.003055    0.020079   0.001687  31.1864    0.002696    0.001221       
   LBFGS   138      4    0.002859    0.022609   0.002816  31.3675    0.005652    0.001834       
   LBFGS   139      4    0.002660    0.024736   0.002177  31.4479    0.002472    0.001185       
   LBFGS   140      4    0.002436    0.028064   0.002980  31.5746    0.005383    0.001909       
   LBFGS   141      4    0.001989    0.040701   0.004042  31.8344    0.008410    0.002668       

Possible intermediate minimum found at image(s): 2 
  => have a look at the .interp file.
  => it is often a good idea to divide the path calculation into smaller fragments. 

   LBFGS   142      4    0.001821    0.014164   0.001709  31.8421    0.002950    0.001156       
   LBFGS   143      4    0.001775    0.008285   0.001260  31.8567    0.002778    0.001114       
   LBFGS   144      4    0.001423    0.011695   0.001611  32.0228    0.002863    0.001321       
   LBFGS   145      4    0.001006    0.032444   0.003032  32.2474    0.003760    0.001296       
   LBFGS   146      4    0.000525    0.034825   0.003277  32.5366    0.003965    0.001338       
   LBFGS   147      4    0.000468    0.013537   0.001679  32.5689    0.001815    0.000886       

                                .--------------------.
          ----------------------| CI-NEB convergence |-------------------------
          Item                value                   Tolerance       Converged
          ---------------------------------------------------------------------
          RMS(Fp)             0.0016794211            0.0100000000      YES
          MAX(|Fp|)           0.0135373552            0.0200000000      YES
          RMS(FCI)            0.0008860653            0.0010000000      YES
          MAX(|FCI|)          0.0018151823            0.0020000000      YES
          ---------------------------------------------------------------------

The elastic band and climbing image have converged successfully to a MEP in 147 iterations!


                    *********************H U R R A Y*********************
                    ***        THE NEB OPTIMIZATION HAS CONVERGED     ***
                    *****************************************************



---------------------------------------------------------------
                         PATH SUMMARY              
---------------------------------------------------------------
All forces in Eh/Bohr.

Image Dist.(Ang.)    E(Eh)   dE(kcal/mol)  max(|Fp|)  RMS(Fp)
  0     0.000    -990.25970      0.00       0.06860   0.01718
  1     3.404    -990.27430     -9.16       0.00036   0.00009
  2     6.706    -990.27524     -9.75       0.00369   0.00070
  3     9.935    -990.26520     -3.45       0.01354   0.00296
  4    10.245    -990.25924      0.29       0.00176   0.00088 <= CI
  5    10.333    -990.26009     -0.24       0.00641   0.00168
  6    10.719    -990.27310     -8.40       0.01211   0.00339
  7    12.199    -990.28990    -18.95       0.00279   0.00117
  8    14.372    -990.29812    -24.11       0.00165   0.00066
  9    17.235    -990.30552    -28.75       0.00416   0.00126

Straight line distance between images along the path:
        D( 0- 1) =   3.4043 Ang.
        D( 1- 2) =   3.3016 Ang.
        D( 2- 3) =   3.2296 Ang.
        D( 3- 4) =   0.3099 Ang.
        D( 4- 5) =   0.0875 Ang.
        D( 5- 6) =   0.3861 Ang.
        D( 6- 7) =   1.4802 Ang.
        D( 7- 8) =   2.1726 Ang.
        D( 8- 9) =   2.8629 Ang.

---------------------------------------------------------------
               INFORMATION ABOUT SADDLE POINT     
---------------------------------------------------------------

Climbing image                            ....  4 
Energy                                    ....  -990.25923573 Eh
Max. abs. force                           ....  1.8152e-03 Eh/Bohr

-----------------------------------------
  SADDLE POINT (ANGSTROEM)
-----------------------------------------
C      0.681532    -0.189376    -0.390181 
N      1.780632    -0.741153     0.133919 
C      2.392617    -0.140015     1.150526 
C      2.006080     1.082487     1.694597 
C      0.839116     1.642707     1.211898 
C      0.171487     1.022325     0.168115 
N     -1.083642     1.559739    -0.256107 
O     -1.486051     1.307328    -1.380824 
O     -1.729259     2.237353     0.539194 
F      0.605320    -0.370205    -1.743439 
H      3.277224    -0.641585     1.533529 
H      2.608385     1.575085     2.448559 
H      0.450682     2.574972     1.607789 
C     -2.163568    -2.214737    -1.451412 
H     -2.174959    -1.438599    -2.222848 
H     -3.201677    -2.385969    -1.148621 
H     -1.800838    -3.139674    -1.909240 
S     -1.173081    -1.740684     0.014547 

-----------------------------------------
  FORCES (Eh/Bohr)
-----------------------------------------
C     -0.000038     0.001042    -0.000986 
N      0.000793     0.000599    -0.000786 
C     -0.000935     0.000050    -0.001109 
C      0.000127    -0.001327     0.000577 
C     -0.001149     0.000379    -0.000307 
C      0.000217    -0.000060    -0.000827 
N      0.000133     0.000092    -0.000926 
O     -0.000879    -0.000900    -0.000027 
O      0.000421     0.001630    -0.001094 
F     -0.001476    -0.000539    -0.000248 
H     -0.000003    -0.000515    -0.000616 
H     -0.001606    -0.001575     0.000890 
H     -0.000336    -0.000643     0.000089 
C      0.000909     0.000471     0.000956 
H      0.001736     0.001111     0.001600 
H      0.000732     0.000415     0.000023 
H      0.001238     0.000836     0.000575 
S     -0.000331    -0.000850     0.001815 

-----------------------------------------
  UNIT TANGENT
-----------------------------------------
C     -0.459988    -0.379192     0.132863 
N     -0.184998    -0.192756     0.124303 
C     -0.087898    -0.053322    -0.041385 
C     -0.041304    -0.020022    -0.030439 
C     -0.010351    -0.017927    -0.012449 
C     -0.106940    -0.056113     0.016498 
N     -0.013604     0.001489     0.066384 
O     -0.077684    -0.052929     0.024502 
O     -0.012484     0.091099    -0.008730 
F      0.105220     0.060077    -0.093749 
H     -0.035216    -0.001579    -0.082180 
H     -0.002977    -0.015586    -0.068497 
H      0.014593     0.012622    -0.061238 
C      0.167789     0.101567     0.002863 
H      0.028392     0.040666    -0.035843 
H      0.199144     0.102991     0.178284 
H      0.097735     0.054896     0.047863 
S      0.420569     0.324018    -0.159050 
 => Unit tangent is an approximation to the TS mode at the saddle point

Next a TS optimization is performed on the CI from the NEB run.

         *************************************************************
         *                       TS OPTIMIZATION                     *
         *************************************************************


Following output files will be written:
Converged TS will be written to          ....  TS_search_opt_without_h_NEB-TS_converged.xyz
                                         ....  TS_search_opt_without_h.xyz
Current trajectory will be written to    ....  TS_search_opt_without_h_trj.xyz
Initial Hessian will be stored in        ....  TS_search_opt_without_h.appr.hess
Geometry optimization settings:
Update method            Update   .... Bofill
Choice of coordinates    CoordSys .... Z-matrix Internals
Initial Hessian          InHess   .... Read

Convergence Tolerances:
Energy Change            TolE     ....  5.0000e-06 Eh
Max. Gradient            TolMAXG  ....  3.0000e-04 Eh/bohr
RMS Gradient             TolRMSG  ....  1.0000e-04 Eh/bohr
Max. Displacement        TolMAXD  ....  4.0000e-03 bohr
RMS Displacement         TolRMSD  ....  2.0000e-03 bohr
Strict Convergence                ....  False
------------------------------------------------------------------------------
                        ORCA OPTIMIZATION COORDINATE SETUP
------------------------------------------------------------------------------

The optimization will be done in new redundant internal coordinates
Making redundant internal coordinates   ...  (new redundants) done
Following TS mode number                ...     0
TS-active-atoms for coordinate setup... 0 17 
Evaluating the initial hessian          ... (Reading Exact Hessian)...  
InHessName: TS_search_opt_without_h.appr.hess	The file <TS_search_opt_without_h.appr.hess> is opened as a .hess file
done
done
Diagonalizing the Hessian               .... done
Dimension of the hessian                .... 158
Lowest eigenvalues of the non projected Hessian:
 -0.012016232 -0.000000000 -0.000000000 -0.000000000 -0.000000000
done
Evaluating the coordinates              ...  done
Calculating the B-matrix                .... done
Calculating the G-matrix                .... done
Diagonalizing the G-matrix              .... done
The first mode is                       ....  110
The number of degrees of freedom        ....   48

    -----------------------------------------------------------------
                    Redundant Internal Coordinates


    -----------------------------------------------------------------
         Definition                    Initial Value    d2E/dq (diagonal element)
    -----------------------------------------------------------------
      1. B(N   1,C   0)                  1.3368         0.198953   
      2. B(C   2,C   0)                  2.3030         0.123292   
      3. B(C   2,N   1)                  1.3302         0.318454   
      4. B(C   3,C   0)                  2.7782         0.101887   
      5. B(C   3,C   2)                  1.3928         0.449468   
      6. B(C   4,C   3)                  1.3815         0.486188   
      7. B(C   4,C   0)                  2.4389         0.108228   
      8. B(C   5,C   4)                  1.3857         0.293082   
      9. B(C   5,C   0)                  1.4283         0.137439   
     10. B(N   6,C   0)                  2.4886         0.087251   
     11. B(N   6,C   5)                  1.4297         0.239124   
     12. B(O   7,C   0)                  2.8142         0.062356   
     13. B(O   7,N   6)                  1.2209         0.733645   
     14. B(O   8,N   6)                  1.2282         0.908633   
     15. B(F   9,C   0)                  1.3674         0.300943   
     16. B(H  10,C   2)                  1.0866         0.365411   
     17. B(H  11,C   3)                  1.0835         0.369365   
     18. B(H  12,C   4)                  1.0848         0.367135   
     19. B(H  14,C  13)                  1.0944         0.224667   
     20. B(H  14,F   9)                  3.0168         0.027928   
     21. B(H  14,O   7)                  2.9536         0.028790   
     22. B(H  15,C  13)                  1.0948         0.290397   
     23. B(H  16,C  13)                  1.0939         0.287498   
     24. B(S  17,H  14)                  2.4700         0.065437   
     25. B(S  17,O   7)                  3.3668         0.015819   
     26. B(S  17,N   6)                  3.3127         0.020906   
     27. B(S  17,F   9)                  2.8516         0.054896   
     28. B(S  17,C   5)                  3.0766         0.043980   
     29. B(S  17,N   1)                  3.1205         0.070858   
     30. B(S  17,C   0)                  2.4515         0.001597   
     31. B(S  17,C  13)                  1.8316         0.135993   
     32. B(S  17,H  16)                  2.4601         0.067436   
     33. B(S  17,H  15)                  2.4258         0.078393   
     34. A(N   1,C   0,F   9)          112.2856         0.011711   
     35. A(F   9,C   0,S  17)           92.1513         0.006762   
     36. A(C   5,C   0,S  17)          101.6626         0.006912   
     37. A(N   1,C   0,S  17)          107.2217         0.009944   
     38. A(C   5,C   0,F   9)          118.6278         0.011635   
     39. A(N   1,C   0,C   5)          119.3735         0.020038   
     40. A(C   0,N   1,S  17)           48.6239         0.005036   
     41. A(C   2,N   1,S  17)          127.5513         0.021605   
     42. A(C   0,N   1,C   2)          119.4294         0.028217   
     43. A(C   3,C   2,H  10)          119.5628         0.193462   
     44. A(N   1,C   2,C   3)          124.5775         0.059469   
     45. A(N   1,C   2,H  10)          115.8053         0.193901   
     46. A(C   2,C   3,C   4)          116.9913         0.064924   
     47. A(C   4,C   3,H  11)          121.8934         0.194079   
     48. A(C   2,C   3,H  11)          121.1053         0.193680   
     49. A(C   3,C   4,C   5)          119.2495         0.053846   
     50. A(C   5,C   4,H  12)          119.1535         0.191028   
     51. A(C   3,C   4,H  12)          121.5638         0.190875   
     52. A(C   0,C   5,N   6)          121.0904         0.032133   
     53. A(C   0,C   5,C   4)          120.1457         0.021880   
     54. A(C   4,C   5,S  17)          130.5594         0.014859   
     55. A(N   6,C   5,S  17)           86.5087         0.012684   
     56. A(C   0,C   5,S  17)           51.2944         0.002974   
     57. A(C   4,C   5,N   6)          118.5671         0.039505   
     58. A(C   5,N   6,O   8)          118.4709         0.245784   
     59. A(O   7,N   6,O   8)          122.5011         0.253635   
     60. A(C   5,N   6,O   7)          119.0106         0.078175   
     61. A(C   0,F   9,S  17)           59.2161         0.004838   
     62. A(H  16,C  13,S  17)          111.9926         0.092785   
     63. A(H  15,C  13,S  17)          109.3829         0.089931   
     64. A(H  14,C  13,S  17)          112.7221         0.074124   
     65. A(H  15,C  13,H  16)          107.3322         0.073469   
     66. A(H  14,C  13,H  15)          107.2177         0.068835   
     67. A(H  14,C  13,H  16)          107.9438         0.077745   
     68. A(C   0,S  17,C  13)          116.1515         0.017655   
     69. A(C   5,S  17,F   9)           47.6703         0.010165   
     70. A(N   1,S  17,F   9)           43.8897         0.010862   
     71. A(C   0,S  17,F   9)           28.6326         0.010209   
     72. A(F   9,S  17,C  13)           88.1790         0.016296   
     73. A(N   1,S  17,C   5)           45.3134         0.007371   
     74. A(C   0,S  17,C   5)           27.0430         0.004399   
     75. A(C   5,S  17,C  13)          120.5782         0.017486   
     76. A(C   0,S  17,N   1)           24.1544         0.005533   
     77. A(N   1,S  17,C  13)          128.7101         0.016159   
     78. D(S  17,N   1,C   0,C   5)    114.6659         0.007922   
     79. D(C   2,N   1,C   0,C   5)     -1.1574         0.011112   
     80. D(S  17,N   1,C   0,F   9)    -99.7593         0.008790   
     81. D(C   2,N   1,C   0,S  17)   -115.8234         0.013047   
     82. D(C   2,N   1,C   0,F   9)    144.4174         0.011969   
     83. D(H  10,C   2,N   1,C   0)    179.7341         0.012975   
     84. D(C   3,C   2,N   1,S  17)    -61.3984         0.012712   
     85. D(H  10,C   2,N   1,S  17)    121.3068         0.014773   
     86. D(C   3,C   2,N   1,C   0)     -2.9711         0.013394   
     87. D(H  11,C   3,C   2,N   1)   -173.1055         0.011479   
     88. D(H  11,C   3,C   2,H  10)      4.0945         0.013330   
     89. D(C   4,C   3,C   2,H  10)   -177.0338         0.011842   
     90. D(C   4,C   3,C   2,N   1)      5.7662         0.011312   
     91. D(C   5,C   4,C   3,H  11)    174.5478         0.010748   
     92. D(C   5,C   4,C   3,C   2)     -4.3144         0.009060   
     93. D(H  12,C   4,C   3,C   2)    177.8007         0.009690   
     94. D(H  12,C   4,C   3,H  11)     -3.3371         0.012199   
     95. D(N   6,C   5,C   4,C   3)    175.5538         0.008688   
     96. D(N   6,C   5,C   0,S  17)    -54.9475         0.004412   
     97. D(S  17,C   5,C   0,F   9)     98.9943         0.007145   
     98. D(S  17,C   5,C   0,N   1)   -117.5867         0.009890   
     99. D(C   0,C   5,C   4,C   3)      0.5957         0.009784   
    100. D(N   6,C   5,C   4,H  12)     -6.5099         0.009264   
    101. D(N   6,C   5,C   0,F   9)     44.0468         0.006502   
    102. D(N   6,C   5,C   0,N   1)   -172.5342         0.007402   
    103. D(C   4,C   5,C   0,S  17)    119.8812         0.009312   
    104. D(S  17,C   5,C   4,H  12)   -118.5177         0.011299   
    105. D(S  17,C   5,C   4,C   3)     63.5460         0.010584   
    106. D(C   4,C   5,C   0,F   9)   -141.1245         0.010623   
    107. D(C   4,C   5,C   0,N   1)      2.2945         0.010018   
    108. D(C   0,C   5,C   4,H  12)    178.5321         0.009904   
    109. D(O   8,N   6,C   5,S  17)    111.8878         0.008755   
    110. D(O   8,N   6,C   5,C   4)    -23.2275         0.010705   
    111. D(O   8,N   6,C   5,C   0)    151.6810         0.009507   
    112. D(O   7,N   6,C   5,S  17)    -66.6371         0.009480   
    113. D(O   7,N   6,C   5,C   4)    158.2477         0.012486   
    114. D(O   7,N   6,C   5,C   0)    -26.8439         0.012008   
    115. D(S  17,F   9,C   0,C   5)   -104.5349         0.007502   
    116. D(S  17,F   9,C   0,N   1)    109.6085         0.011936   
    117. D(N   1,S  17,C   5,C   4)    -71.5426         0.021949   
    118. D(N   1,S  17,C   5,C   0)     27.7363         0.007814   
    119. D(C   0,S  17,C   5,N   6)    135.3852         0.014822   
    120. D(C  13,S  17,C   5,N   6)     47.1930         0.014395   
    121. D(C  13,S  17,C   5,C   4)    172.5289         0.020105   
    122. D(C  13,S  17,C   5,C   0)    -88.1922         0.010780   
    123. D(F   9,S  17,N   1,C   0)     39.1064         0.012291   
    124. D(C   5,S  17,N   1,C   2)     67.4156         0.021230   
    125. D(C   5,S  17,N   1,C   0)    -31.1387         0.008613   
    126. D(C   0,S  17,N   1,C   2)     98.5543         0.021361   
    127. D(C  13,S  17,N   1,C   2)    164.5528         0.024298   
    128. D(C  13,S  17,N   1,C   0)     65.9985         0.017029   
    129. D(F   9,S  17,C   0,C   5)    119.8227         0.012187   
    130. D(F   9,S  17,C   0,N   1)   -114.1388         0.012729   
    131. D(F   9,S  17,N   1,C   2)    137.6607         0.030627   
    132. D(C   5,S  17,C   0,F   9)   -119.8227         0.012187   
    133. D(C   5,S  17,C   0,N   1)    126.0386         0.014992   
    134. D(N   1,S  17,C   0,F   9)    114.1388         0.012729   
    135. D(C   0,S  17,C   5,C   4)    -99.2789         0.019964   
    136. D(N   1,S  17,C   0,C   5)   -126.0386         0.014992   
    137. D(C  13,S  17,C   0,F   9)    -13.2866         0.008014   
    138. D(C  13,S  17,C   0,C   5)    106.5360         0.009657   
    139. D(N   1,S  17,C   5,N   6)    163.1215         0.015789   
    140. D(F   9,S  17,C  13,H  16)     87.1209         0.013226   
    141. D(F   9,S  17,C  13,H  15)   -154.0181         0.013226   
    142. D(C  13,S  17,C   0,N   1)   -127.4254         0.010053   
    143. D(C   5,S  17,C  13,H  16)    123.8618         0.014086   
    144. D(C   5,S  17,C  13,H  15)   -117.2772         0.014483   
    145. D(C   5,S  17,C  13,H  14)      1.9005         0.014427   
    146. D(N   1,S  17,C  13,H  15)   -172.3025         0.015851   
    147. D(N   1,S  17,C  13,H  14)    -53.1248         0.013886   
    148. D(C   0,S  17,C  13,H  16)     93.4469         0.011624   
    149. D(C   0,S  17,C  13,H  15)   -147.6921         0.011839   
    150. D(C   0,S  17,C  13,H  14)    -28.5144         0.011555   
    151. D(N   1,S  17,C  13,H  16)     68.8365         0.015164   
    152. D(C   5,S  17,F   9,C   0)     32.2460         0.009146   
    153. D(N   1,S  17,F   9,C   0)    -32.5902         0.011488   
    154. D(C  13,S  17,F   9,C   0)    168.0885         0.006987   
    155. D(F   9,S  17,C  13,H  14)    -34.8404         0.013982   
    156. D(F   9,S  17,C   5,N   6)    101.1670         0.018365   
    157. D(F   9,S  17,C   5,C   4)   -133.4971         0.025770   
    158. D(F   9,S  17,C   5,C   0)    -34.2182         0.010071   
    -----------------------------------------------------------------

Number of atoms                         .... 18
Number of degrees of freedom            .... 158

         *************************************************************
         *                GEOMETRY OPTIMIZATION CYCLE   1            *
         *************************************************************


           ************************************************************
           *        Program running with 24 parallel MPI-processes    *
           *              working on a common directory               *
           ************************************************************
------------------------------------------------------------------------------
                           ORCA GTO INTEGRAL CALCULATION
                           -- RI-GTO INTEGRALS CHOSEN --
------------------------------------------------------------------------------
------------------------------------------------------------------------------
                   ___                                                        
                  /   \      - P O W E R E D   B Y -                         
                 /     \                                                     
                 |  |  |   _    _      __       _____    __    __             
                 |  |  |  | |  | |    /  \     |  _  \  |  |  /  |          
                  \  \/   | |  | |   /    \    | | | |  |  | /  /          
                 / \  \   | |__| |  /  /\  \   | |_| |  |  |/  /          
                |  |  |   |  __  | /  /__\  \  |    /   |      \           
                |  |  |   | |  | | |   __   |  |    \   |  |\   \          
                \     /   | |  | | |  |  |  |  | |\  \  |  | \   \       
                 \___/    |_|  |_| |__|  |__|  |_| \__\ |__|  \__/        
                                                                              
                      - O R C A' S   B I G   F R I E N D -                    
                                      &                                       
                       - I N T E G R A L  F E E D E R -                       
                                                                              
 v1 FN, 2020, v2 2021                                                         
------------------------------------------------------------------------------


Reading SHARK input file TS_search_opt_without_h.SHARKINP.tmp ... ok
----------------------
SHARK INTEGRAL PACKAGE
----------------------

Number of atoms                             ...     18
Number of basis functions                   ...    314
Number of shells                            ...    154
Maximum angular momentum                    ...      2
Integral batch strategy                     ... SHARK/LIBINT Hybrid
RI-J (if used) integral strategy            ... SPLIT-RIJ (Revised 2003 algorithm where possible)
Printlevel                                  ...      1
Contraction scheme used                     ... SEGMENTED contraction
Coulomb Range Separation                    ... NOT USED
Exchange Range Separation                   ... Long Range
   Mu parameter                             ...  0.300000
   Scaling (regular/separated)              ...  0.157706  0.842294
Finite Nucleus Model                        ... NOT USED
Auxiliary Coulomb fitting basis             ... AVAILABLE
   # of basis functions in Aux-J            ...    656
   # of shells in Aux-J                     ...    212
   Maximum angular momentum in Aux-J        ...      4
Auxiliary J/K fitting basis                 ... NOT available
Auxiliary Correlation fitting basis         ... NOT available
Auxiliary 'external' fitting basis          ... NOT available
Integral threshold                          ...     2.500000e-11
Primitive cut-off                           ...     2.500000e-12
Primitive pair pre-selection threshold      ...     2.500000e-12

Calculating pre-screening integrals         ... done (  0.1 sec) Dimension = 154
Organizing shell pair data                  ... done (  0.3 sec)
Shell pair information
Total number of shell pairs                 ...     11935
Shell pairs after pre-screening             ...     10285
Total number of primitive shell pairs       ...     38500
Primitive shell pairs kept                  ...     23503
          la=0 lb=0:   3143 shell pairs
          la=1 lb=0:   4196 shell pairs
          la=1 lb=1:   1433 shell pairs
          la=2 lb=0:    846 shell pairs
          la=2 lb=1:    597 shell pairs
          la=2 lb=2:     70 shell pairs

Calculating one electron integrals          ... done (  0.0 sec)
Calculating RI/J V-Matrix + Cholesky decomp.... done (  0.1 sec)
Calculating Nuclear repulsion               ... done (  0.0 sec) ENN=    814.829457225591 Eh

SHARK setup successfully completed in   0.7 seconds

Maximum memory used throughout the entire GTOINT-calculation: 17.0 MB


           ************************************************************
           *        Program running with 24 parallel MPI-processes    *
           *              working on a common directory               *
           ************************************************************
-------------------------------------------------------------------------------
                                 ORCA SCF
-------------------------------------------------------------------------------

------------
SCF SETTINGS
------------
Hamiltonian:
 Density Functional     Method          .... DFT(GTOs)
 Exchange Functional    Exchange        .... WB97X
 Correlation Functional Correlation     .... WB97X
 Gradients option       PostSCFGGA      .... off
 Hybrid DFT is turned on
   Fraction HF Exchange ScalHFX         ....  0.157706
   Scaling of DF-GGA-X  ScalDFX         ....  0.000000
   Scaling of DF-GGA-C  ScalDFC         ....  1.000000
   Scaling of DF-LDA-C  ScalLDAC        ....  1.000000
   Perturbative correction              ....  0.000000
   Density functional embedding theory  .... OFF
 Long-range corrected/Screened/Range-Separated Hybrid DFT is turned on
   Amount of maximum screened exact exchange              ....  0.842294
   Range separation parameter mu (erf(mu*r12)/r12)        ....  0.300000
 RI-approximation to the Coulomb term is turned on
   Number of AuxJ basis functions       .... 656
   RIJ-COSX (HFX calculated with COS-X)).... on


General Settings:
 Integral files         IntName         .... TS_search_opt_without_h
 Hartree-Fock type      HFTyp           .... RHF
 Total Charge           Charge          ....   -1
 Multiplicity           Mult            ....    1
 Number of Electrons    NEL             ....   98
 Basis Dimension        Dim             ....  314
 Nuclear Repulsion      ENuc            ....    814.8294572256 Eh

Convergence Acceleration:
 DIIS                   CNVDIIS         .... on
   Start iteration      DIISMaxIt       ....    12
   Startup error        DIISStart       ....  0.200000
   # of expansion vecs  DIISMaxEq       ....     5
   Bias factor          DIISBfac        ....   1.050
   Max. coefficient     DIISMaxC        ....  10.000
 Trust-Rad. Augm. Hess. CNVTRAH         .... auto
   Auto Start mean grad. ratio tolernc. ....  1.125000
   Auto Start start iteration           ....     1
   Auto Start num. interpolation iter.  ....    10
   Max. Number of Micro iterations      ....    16
   Max. Number of Macro iterations      .... Maxiter - #DIIS iter
   Number of Davidson start vectors     ....     2
   Converg. threshold I  (grad. norm)   ....   1.000e-05
   Converg. threshold II (energy diff.) ....   1.000e-08
   Grad. Scal. Fac. for Micro threshold ....   0.100
   Minimum threshold for Micro iter.    ....   0.010
   NR start threshold (gradient norm)   ....   0.001
   Initial trust radius                 ....   0.400
   Minimum AH scaling param. (alpha)    ....   1.000
   Maximum AH scaling param. (alpha)    .... 1000.000
   Orbital update algorithm             .... Taylor
   White noise on init. David. guess    .... on
   Maximum white noise                  ....   0.010
   Quad. conv. algorithm                .... NR
 SOSCF                  CNVSOSCF        .... on
   Start iteration      SOSCFMaxIt      ....   150
   Startup grad/error   SOSCFStart      ....  0.003300
 Level Shifting         CNVShift        .... on
   Level shift para.    LevelShift      ....    0.2500
   Turn off err/grad.   ShiftErr        ....    0.0010
 Zerner damping         CNVZerner       .... off
 Static damping         CNVDamp         .... on
   Fraction old density DampFac         ....    0.7000
   Max. Damping (<1)    DampMax         ....    0.9800
   Min. Damping (>=0)   DampMin         ....    0.0000
   Turn off err/grad.   DampErr         ....    0.1000
 Fernandez-Rico         CNVRico         .... off

SCF Procedure:
 Maximum # iterations   MaxIter         ....   125
 SCF integral mode      SCFMode         .... Direct
   Integral package                     .... SHARK and LIBINT hybrid scheme
 Reset frequency        DirectResetFreq ....    20
 Integral Threshold     Thresh          ....  2.500e-11 Eh
 Primitive CutOff       TCut            ....  2.500e-12 Eh

Convergence Tolerance:
 Convergence Check Mode ConvCheckMode   .... Total+1el-Energy
 Convergence forced     ConvForced      .... 0
 Energy Change          TolE            ....  1.000e-08 Eh
 1-El. energy change                    ....  1.000e-05 Eh
 Orbital Gradient       TolG            ....  1.000e-05
 Orbital Rotation angle TolX            ....  1.000e-05
 DIIS Error             TolErr          ....  5.000e-07


Diagonalization of the overlap matrix:
Smallest eigenvalue                        ... 2.835e-06
Time for diagonalization                   ...    0.022 sec
Threshold for overlap eigenvalues          ... 1.000e-08
Number of eigenvalues below threshold      ... 0
Time for construction of square roots      ...    0.033 sec
Total time needed                          ...    0.057 sec

---------------------
INITIAL GUESS: MOREAD
---------------------
Guess MOs are being read from file: TS_search_opt_without_h.gbw
Input Geometry matches current geometry (good)
Input basis set matches current basis set (good)
MOs were renormalized
MOs were reorthogonalized (Cholesky)
                      ------------------
                      INITIAL GUESS DONE (   0.0 sec)
                      ------------------
-------------------
DFT GRID GENERATION
-------------------

General Integration Accuracy     IntAcc      ... 4.388
Radial Grid Type                 RadialGrid  ... OptM3 with GC (2021)
Angular Grid (max. ang.)         AngularGrid ... 4 (Lebedev-302)
Angular grid pruning method      GridPruning ... 4 (adaptive)
Weight generation scheme         WeightScheme... Becke
Basis function cutoff            BFCut       ... 1.0000e-11
Integration weight cutoff        WCut        ... 1.0000e-14
Angular grids for H and He will be reduced by one unit
Partially contracted basis set               ... off
Rotationally invariant grid construction     ... off

Total number of grid points                  ...    97733
Total number of batches                      ...     1536
Average number of points per batch           ...       63
Average number of grid points per atom       ...     5430
Time for grid setup =    0.761 sec

--------------------
COSX GRID GENERATION
--------------------

GRIDX 1
-------
General Integration Accuracy     IntAcc      ... 3.816
Radial Grid Type                 RadialGrid  ... OptM3 with GC (2021)
Angular Grid (max. ang.)         AngularGrid ... 1 (Lebedev-50)
Angular grid pruning method      GridPruning ... 4 (adaptive)
Weight generation scheme         WeightScheme... Becke
Basis function cutoff            BFCut       ... 1.0000e-11
Integration weight cutoff        WCut        ... 1.0000e-14
Angular grids for H and He will be reduced by one unit
Partially contracted basis set               ... on
Rotationally invariant grid construction     ... off

Total number of grid points                  ...    12187
Total number of batches                      ...      198
Average number of points per batch           ...       61
Average number of grid points per atom       ...      677
UseSFitting                                  ... on

GRIDX 2
-------
General Integration Accuracy     IntAcc      ... 4.020
Radial Grid Type                 RadialGrid  ... OptM3 with GC (2021)
Angular Grid (max. ang.)         AngularGrid ... 2 (Lebedev-110)
Angular grid pruning method      GridPruning ... 4 (adaptive)
Weight generation scheme         WeightScheme... Becke
Basis function cutoff            BFCut       ... 1.0000e-11
Integration weight cutoff        WCut        ... 1.0000e-14
Angular grids for H and He will be reduced by one unit
Partially contracted basis set               ... on
Rotationally invariant grid construction     ... off

Total number of grid points                  ...    30543
Total number of batches                      ...      486
Average number of points per batch           ...       62
Average number of grid points per atom       ...     1697
UseSFitting                                  ... on

GRIDX 3
-------
General Integration Accuracy     IntAcc      ... 4.338
Radial Grid Type                 RadialGrid  ... OptM3 with GC (2021)
Angular Grid (max. ang.)         AngularGrid ... 3 (Lebedev-194)
Angular grid pruning method      GridPruning ... 4 (adaptive)
Weight generation scheme         WeightScheme... Becke
Basis function cutoff            BFCut       ... 1.0000e-11
Integration weight cutoff        WCut        ... 1.0000e-14
Angular grids for H and He will be reduced by one unit
Partially contracted basis set               ... on
Rotationally invariant grid construction     ... off

Total number of grid points                  ...    67926
Total number of batches                      ...     1069
Average number of points per batch           ...       63
Average number of grid points per atom       ...     3774
UseSFitting                                  ... on

Time for X-Grid setup             =    0.960 sec


--------------------
CPCM SOLVATION MODEL
--------------------
CPCM parameters:
  Epsilon                                         ...      78.3550
  Refrac                                          ...       1.3328
  Rsolv                                           ...       1.3000
  Surface type                                    ... GAUSSIAN VDW
  Epsilon function type                           ...         CPCM
Solvent:                                     ... WATER
SMD-CDS solvent descriptors:
  Soln                                       ...    1.3328
  Soln25                                     ...    1.3323
  Sola                                       ...    0.0000
  Solb                                       ...    0.0000
  Solg                                       ...    0.0000
  Solc                                       ...    0.0000
  Solh                                       ...    0.0000
Radii:
 Radius for C  used is    3.4960 Bohr (=   1.8500 Ang.)
 Radius for N  used is    3.5716 Bohr (=   1.8900 Ang.)
 Radius for O  used is    2.8724 Bohr (=   1.5200 Ang.)
 Radius for F  used is    3.2692 Bohr (=   1.7300 Ang.)
 Radius for H  used is    2.2677 Bohr (=   1.2000 Ang.)
 Radius for S  used is    4.7054 Bohr (=   2.4900 Ang.)
Calculating surface                               ...        done! (  0.0s)
GEPOL surface points                              ...         1071
GEPOL Volume                                      ...    1267.2679
GEPOL Surface-area                                ...     705.7734
Calculating surface distance matrix               ...        done! (  0.0s)
Performing Cholesky decomposition & store         ...        done! (  0.1s)
Overall time for CPCM initialization              ...                 0.1s
--------------
SCF ITERATIONS
--------------
ITER       Energy         Delta-E        Max-DP      RMS-DP      [F,P]     Damp
               ***  Starting incremental Fock matrix formation  ***
                      *** Initiating the SOSCF procedure ***
                      *** Re-Reading the Fockian *** 
                      *** Removing any level shift *** 
ITER      Energy       Delta-E        Grad      Rot      Max-DP    RMS-DP
  0   -990.26427840 -990.2642784016  0.000001  0.000001  0.013905  0.000098
               *** Restarting incremental Fock matrix formation ***
                  ***Gradient check signals convergence***
              ***Rediagonalizing the Fockian in SOSCF/NRSCF***

               *****************************************************
               *                     SUCCESS                       *
               *           SCF CONVERGED AFTER   1 CYCLES          *
               *****************************************************

Old exchange energy                            =    -28.483784405 Eh
New exchange energy                            =    -28.483753853 Eh
Exchange energy change after final integration =      0.000030552 Eh
Total energy after final integration           =   -990.264247850 Eh
Final COS-X integration done in                =     4.732 sec

SMD CDS free energy correction energy :                 5.35688     Kcal/mol
Total Energy after SMD CDS correction =              -990.255711126 Eh

----------------
TOTAL SCF ENERGY
----------------

Total Energy       :         -990.25571113 Eh          -26946.22782 eV

Components:
Nuclear Repulsion  :          814.82945723 Eh           22172.63677 eV
Electronic Energy  :        -1805.08516835 Eh          -49118.86459 eV
One Electron Energy:        -2994.34286951 Eh          -81480.21185 eV
Two Electron Energy:         1189.25770115 Eh           32361.34727 eV
Max COSX asymmetry :            0.00000431 Eh               0.00012 eV
CPCM Dielectric    :           -0.10283960 Eh              -2.79841 eV
SMD CDS (Gcds)     :            0.00853672 Eh               0.23230 eV

Virial components:
Potential Energy   :        -1978.34086336 Eh          -53833.39173 eV
Kinetic Energy     :          988.08515223 Eh           26887.16391 eV
Virial Ratio       :            2.00219673


DFT components:
N(Alpha)           :       49.000056486617 electrons
N(Beta)            :       49.000056486617 electrons
N(Total)           :       98.000112973233 electrons
E(XC)              :      -73.543279057002 Eh       
DFET-embed. en.    :        0.000000000000 Eh       
CPCM Solvation Model Properties:
Surface-charge          :            0.95181115
Charge-correction       :           -0.00599205 Eh              -0.16305 eV
Free-energy (cav+disp)  :            0.00853672 Eh               0.23230 eV

---------------
SCF CONVERGENCE
---------------

  Last Energy change         ...   -2.1976e-10  Tolerance :   1.0000e-08
  Last MAX-Density change    ...    3.5527e-15  Tolerance :   1.0000e-07
  Last RMS-Density change    ...    4.8274e-17  Tolerance :   5.0000e-09
  Last Orbital Gradient      ...    2.4555e-06  Tolerance :   1.0000e-05
  Last Orbital Rotation      ...    5.9937e-06  Tolerance :   1.0000e-05

             **** THE GBW FILE WAS UPDATED (TS_search_opt_without_h.gbw) ****
             **** DENSITY TS_search_opt_without_h.scfp WAS UPDATED ****
             **** ENERGY FILE WAS UPDATED (TS_search_opt_without_h.en.tmp) ****
             **** THE GBW FILE WAS UPDATED (TS_search_opt_without_h.gbw) ****
             **** DENSITY TS_search_opt_without_h.scfp WAS UPDATED ****
----------------
ORBITAL ENERGIES
----------------

  NO   OCC          E(Eh)            E(eV) 
   0   2.0000     -88.751217     -2415.0434 
   1   2.0000     -24.745155      -673.3499 
   2   2.0000     -19.235107      -523.4139 
   3   2.0000     -19.231865      -523.3257 
   4   2.0000     -14.646301      -398.5461 
   5   2.0000     -14.394898      -391.7051 
   6   2.0000     -10.412641      -283.3424 
   7   2.0000     -10.313840      -280.6539 
   8   2.0000     -10.310039      -280.5504 
   9   2.0000     -10.293418      -280.0981 
  10   2.0000     -10.258983      -279.1611 
  11   2.0000     -10.248000      -278.8623 
  12   2.0000      -7.947024      -216.2495 
  13   2.0000      -5.910048      -160.8206 
  14   2.0000      -5.904145      -160.6600 
  15   2.0000      -5.901353      -160.5840 
  16   2.0000      -1.379560       -37.5397 
  17   2.0000      -1.350678       -36.7538 
  18   2.0000      -1.194259       -32.4974 
  19   2.0000      -1.092527       -29.7292 
  20   2.0000      -0.985210       -26.8089 
  21   2.0000      -0.921762       -25.0824 
  22   2.0000      -0.849383       -23.1129 
  23   2.0000      -0.842458       -22.9244 
  24   2.0000      -0.771816       -21.0022 
  25   2.0000      -0.741861       -20.1871 
  26   2.0000      -0.698054       -18.9950 
  27   2.0000      -0.689048       -18.7499 
  28   2.0000      -0.671538       -18.2735 
  29   2.0000      -0.659801       -17.9541 
  30   2.0000      -0.650429       -17.6991 
  31   2.0000      -0.619291       -16.8518 
  32   2.0000      -0.594949       -16.1894 
  33   2.0000      -0.587772       -15.9941 
  34   2.0000      -0.537085       -14.6148 
  35   2.0000      -0.519143       -14.1266 
  36   2.0000      -0.504921       -13.7396 
  37   2.0000      -0.501123       -13.6362 
  38   2.0000      -0.499190       -13.5837 
  39   2.0000      -0.492888       -13.4122 
  40   2.0000      -0.441798       -12.0219 
  41   2.0000      -0.428996       -11.6736 
  42   2.0000      -0.420223       -11.4348 
  43   2.0000      -0.418235       -11.3808 
  44   2.0000      -0.398363       -10.8400 
  45   2.0000      -0.385937       -10.5019 
  46   2.0000      -0.351973        -9.5777 
  47   2.0000      -0.281374        -7.6566 
  48   2.0000      -0.270236        -7.3535 
  49   0.0000      -0.019305        -0.5253 
  50   0.0000       0.049555         1.3485 
  51   0.0000       0.056238         1.5303 
  52   0.0000       0.062650         1.7048 
  53   0.0000       0.068169         1.8550 
  54   0.0000       0.073135         1.9901 
  55   0.0000       0.083074         2.2605 
  56   0.0000       0.089459         2.4343 
  57   0.0000       0.093245         2.5373 
  58   0.0000       0.102056         2.7771 
  59   0.0000       0.113887         3.0990 
  60   0.0000       0.125114         3.4045 
  61   0.0000       0.129916         3.5352 
  62   0.0000       0.133580         3.6349 
  63   0.0000       0.137774         3.7490 
  64   0.0000       0.152057         4.1377 
  65   0.0000       0.162851         4.4314 
  66   0.0000       0.168555         4.5866 
  67   0.0000       0.170430         4.6376 
  68   0.0000       0.173643         4.7251 
  69   0.0000       0.177337         4.8256 
  70   0.0000       0.178637         4.8610 
  71   0.0000       0.187474         5.1014 
  72   0.0000       0.191232         5.2037 
  73   0.0000       0.197312         5.3691 
  74   0.0000       0.203533         5.5384 
  75   0.0000       0.204291         5.5590 
  76   0.0000       0.207119         5.6360 
  77   0.0000       0.214338         5.8324 
  78   0.0000       0.218845         5.9551 
  79   0.0000       0.223262         6.0753 
  80   0.0000       0.226851         6.1729 
  81   0.0000       0.236634         6.4391 
  82   0.0000       0.245907         6.6915 
  83   0.0000       0.250389         6.8134 
  84   0.0000       0.255600         6.9552 
  85   0.0000       0.263854         7.1798 
  86   0.0000       0.268921         7.3177 
  87   0.0000       0.269907         7.3446 
  88   0.0000       0.276741         7.5305 
  89   0.0000       0.283276         7.7083 
  90   0.0000       0.288175         7.8416 
  91   0.0000       0.297890         8.1060 
  92   0.0000       0.303599         8.2613 
  93   0.0000       0.311076         8.4648 
  94   0.0000       0.322704         8.7812 
  95   0.0000       0.326727         8.8907 
  96   0.0000       0.336944         9.1687 
  97   0.0000       0.341768         9.3000 
  98   0.0000       0.344504         9.3744 
  99   0.0000       0.353967         9.6319 
 100   0.0000       0.361527         9.8377 
 101   0.0000       0.368324        10.0226 
 102   0.0000       0.371658        10.1133 
 103   0.0000       0.375797        10.2260 
 104   0.0000       0.385723        10.4961 
 105   0.0000       0.394527        10.7356 
 106   0.0000       0.401854        10.9350 
 107   0.0000       0.405698        11.0396 
 108   0.0000       0.413953        11.2642 
 109   0.0000       0.418481        11.3874 
 110   0.0000       0.432395        11.7661 
 111   0.0000       0.440088        11.9754 
 112   0.0000       0.444704        12.1010 
 113   0.0000       0.455823        12.4036 
 114   0.0000       0.459942        12.5157 
 115   0.0000       0.469793        12.7837 
 116   0.0000       0.472821        12.8661 
 117   0.0000       0.479445        13.0464 
 118   0.0000       0.489687        13.3250 
 119   0.0000       0.496199        13.5023 
 120   0.0000       0.512711        13.9516 
 121   0.0000       0.526748        14.3335 
 122   0.0000       0.538539        14.6544 
 123   0.0000       0.546924        14.8826 
 124   0.0000       0.572064        15.5667 
 125   0.0000       0.600343        16.3362 
 126   0.0000       0.619158        16.8481 
 127   0.0000       0.620944        16.8967 
 128   0.0000       0.623946        16.9784 
 129   0.0000       0.652289        17.7497 
 130   0.0000       0.664799        18.0901 
 131   0.0000       0.671657        18.2767 
 132   0.0000       0.682255        18.5651 
 133   0.0000       0.694037        18.8857 
 134   0.0000       0.719748        19.5853 
 135   0.0000       0.730879        19.8882 
 136   0.0000       0.732484        19.9319 
 137   0.0000       0.749375        20.3915 
 138   0.0000       0.760325        20.6895 
 139   0.0000       0.785715        21.3804 
 140   0.0000       0.791456        21.5366 
 141   0.0000       0.795594        21.6492 
 142   0.0000       0.809146        22.0180 
 143   0.0000       0.833702        22.6862 
 144   0.0000       0.845701        23.0127 
 145   0.0000       0.862167        23.4608 
 146   0.0000       0.882084        24.0027 
 147   0.0000       0.895173        24.3589 
 148   0.0000       0.905272        24.6337 
 149   0.0000       0.912917        24.8417 
 150   0.0000       0.928061        25.2538 
 151   0.0000       0.951658        25.8959 
 152   0.0000       0.961778        26.1713 
 153   0.0000       0.966283        26.2939 
 154   0.0000       0.974277        26.5114 
 155   0.0000       0.992835        27.0164 
 156   0.0000       1.002645        27.2834 
 157   0.0000       1.024371        27.8745 
 158   0.0000       1.036697        28.2100 
 159   0.0000       1.042590        28.3703 
 160   0.0000       1.048556        28.5327 
 161   0.0000       1.076256        29.2864 
 162   0.0000       1.078520        29.3480 
 163   0.0000       1.094563        29.7846 
 164   0.0000       1.105863        30.0921 
 165   0.0000       1.116441        30.3799 
 166   0.0000       1.157848        31.5067 
 167   0.0000       1.164659        31.6920 
 168   0.0000       1.178199        32.0604 
 169   0.0000       1.188824        32.3495 
 170   0.0000       1.222245        33.2590 
 171   0.0000       1.224630        33.3239 
 172   0.0000       1.244973        33.8774 
 173   0.0000       1.263092        34.3705 
 174   0.0000       1.269955        34.5572 
 175   0.0000       1.279625        34.8204 
 176   0.0000       1.298158        35.3247 
[...]
      7      -0.005873   0.001738  -0.056527   0.153905  -0.167078  -0.183069
      8      -0.002167   0.001507  -0.149161   0.165956  -0.080598  -0.311634
      9      -0.001605  -0.000004   0.094257   0.045165  -0.296260   0.123203
     10       0.005981  -0.000850  -0.097902  -0.095917   0.307332   0.002458
     11       0.005378  -0.000811  -0.001407  -0.062097   0.000087   0.160551
     12      -0.003639  -0.000111   0.064968  -0.015245   0.193980  -0.240879
     13       0.001535  -0.000433   0.066046   0.000108  -0.184529   0.004840
     14      -0.003040  -0.000706   0.154654  -0.022696   0.036785  -0.297999
     15       0.005886  -0.000330  -0.095671   0.043974  -0.058328   0.098328
     16      -0.012003   0.001757  -0.019514   0.036553   0.242039   0.101113
     17      -0.004684   0.001224  -0.136338   0.085150   0.164706   0.228275
     18      -0.005581   0.002059  -0.069144  -0.084534  -0.089729   0.009225
     19       0.000147  -0.004179  -0.028568  -0.437199  -0.066918  -0.061171
     20      -0.004665  -0.001094  -0.079537  -0.392493  -0.138326  -0.037538
     21       0.003234  -0.000602   0.060015   0.126297   0.048510  -0.007089
     22       0.001813  -0.000131   0.039323   0.137210   0.046330   0.008111
     23       0.003671  -0.000163   0.079018   0.206132   0.077029   0.000428
     24      -0.000064  -0.000986   0.008094  -0.059184   0.016385  -0.006362
     25       0.000453   0.002745  -0.010135   0.216193  -0.006838   0.032822
     26       0.000258   0.001058  -0.000395   0.105025   0.010258   0.019034
     27      -0.000294  -0.000213  -0.008234   0.013760  -0.005178  -0.005799
     28      -0.001138  -0.000075   0.008628  -0.006354   0.010164  -0.003662
     29      -0.002526   0.000329  -0.000963   0.014399   0.016975  -0.001173
     30       0.005442  -0.000664  -0.075519  -0.033219   0.138758  -0.063906
     31       0.023044  -0.007167   0.365371  -0.341816   0.055831   0.332523
     32       0.036274  -0.010486   0.402437  -0.499310   0.246399   0.376800
     33       0.012149   0.000607  -0.412865  -0.033893   0.329881   0.056887
     34      -0.008106  -0.001386   0.458673  -0.026869  -0.381621   0.104716
     35       0.005582  -0.001212   0.038728  -0.069106  -0.053191   0.205495
     36       0.020784  -0.000875  -0.299505  -0.022877  -0.023758   0.314869
     37      -0.001505  -0.000591   0.122553  -0.009302  -0.196975  -0.061097
     38       0.025784  -0.001588  -0.241069  -0.044709  -0.247134   0.331199
     39      -0.053475   0.014626  -0.000460  -0.002095  -0.000085   0.000719
     40       0.024472   0.055785   0.000602  -0.003506  -0.000298  -0.002788
     41       0.023548  -0.024076  -0.000250   0.000060  -0.000248   0.002051
     42       0.270714  -0.316564  -0.006974   0.030253  -0.005738  -0.005371
     43       0.363864  -0.339185  -0.006610   0.034863  -0.006303  -0.011111
     44       0.148138   0.490675   0.006540  -0.010795   0.000586  -0.012733
     45       0.578503  -0.206205  -0.003959   0.030777  -0.006356  -0.024660
     46      -0.238585   0.122233   0.002111  -0.013713   0.002946   0.008076
     47      -0.368846  -0.274643   0.002672   0.022851   0.005826  -0.015533
     48      -0.137463   0.329814   0.008632  -0.006362   0.003433  -0.006085
     49      -0.453407  -0.534911  -0.005288   0.027550   0.001572   0.010313
     50      -0.110936   0.109758   0.005088  -0.000287   0.001119   0.000267
     51      -0.001954   0.000520  -0.000262   0.000611  -0.001297  -0.003395
     52       0.001245   0.002888   0.001458  -0.002309   0.000614  -0.003021
     53       0.001568  -0.001321  -0.000791   0.001464  -0.000055   0.001394
                 48         49         50         51         52         53    
      0      -0.000558   0.000229   0.000099   0.001181  -0.000052   0.000052
      1      -0.000457   0.000102   0.000044   0.000364   0.000362   0.000167
      2       0.000411  -0.000061  -0.000530   0.001108  -0.000050   0.000389
      3       0.000242  -0.000111  -0.000055   0.000647  -0.000298   0.000195
      4       0.000085   0.000013  -0.000049  -0.000009  -0.000000   0.000141
      5       0.000107  -0.000073  -0.000006   0.000798  -0.000348   0.000345
      6       0.000101  -0.000007   0.000013  -0.071396   0.009006  -0.009735
      7      -0.000140   0.000066  -0.000062   0.039572  -0.006187   0.007390
      8      -0.000142   0.000087   0.000027  -0.028530   0.002181  -0.001480
      9      -0.000023   0.000054  -0.000001   0.007358   0.018075  -0.030342
     10       0.000047  -0.000031   0.000025   0.001600   0.018332  -0.020271
     11       0.000089   0.000014  -0.000008   0.010844   0.044155  -0.061946
     12      -0.000026  -0.000022   0.000003   0.000719   0.025842   0.023639
     13       0.000032   0.000005   0.000001  -0.001463  -0.056499  -0.044712
     14      -0.000023  -0.000034   0.000021  -0.000708  -0.031391  -0.020776
     15      -0.000022   0.000094  -0.000117   0.000004   0.000933   0.001035
     16       0.000193  -0.000176   0.000001  -0.000378   0.001032   0.000976
     17      -0.000071   0.000089   0.000039  -0.000312   0.002340   0.002424
     18       0.000228  -0.000241   0.000005   0.000160   0.000264   0.000226
     19      -0.000124   0.000037  -0.000022  -0.000063  -0.000873  -0.000682
     20       0.000095  -0.000140  -0.000042   0.000059  -0.000552  -0.000360
     21      -0.000070   0.000122  -0.000030  -0.000061  -0.000130  -0.000143
     22      -0.000045   0.000126   0.000041  -0.000009   0.000081   0.000089
     23      -0.000085   0.000095   0.000052  -0.000057  -0.000031  -0.000058
     24      -0.000060   0.000037   0.000018  -0.000038   0.000209   0.000098
     25       0.000073  -0.000052   0.000020   0.000089   0.000275   0.000224
     26       0.000021  -0.000003  -0.000011   0.000033   0.000497   0.000307
     27      -0.000039  -0.000038   0.000161  -0.000086  -0.000012   0.000001
     28       0.000015  -0.000017   0.000079  -0.000050  -0.000034  -0.000013
     29      -0.000233   0.000008   0.000294  -0.000163   0.000018  -0.000051
     30      -0.001430   0.000246  -0.000367   0.812094  -0.094242   0.095556
     31       0.000791  -0.000127   0.000220  -0.441662   0.052783  -0.054221
     32      -0.000432   0.000092  -0.000195   0.332158  -0.036598   0.036138
     33      -0.000094  -0.000231   0.000126  -0.068758  -0.233449   0.318379
     34      -0.000103  -0.000188   0.000062  -0.047676  -0.183206   0.243384
     35      -0.000048  -0.000502   0.000123  -0.141158  -0.504621   0.680310
     36       0.000235  -0.000044   0.000104  -0.009099  -0.313198  -0.236531
     37      -0.000278   0.000101  -0.000269   0.018573   0.650250   0.485967
     38      -0.000097   0.000030  -0.000159   0.009655   0.340261   0.250538
     39       0.028624  -0.028356   0.070205   0.000082   0.000030   0.000013
     40       0.005329   0.089641   0.025488  -0.000045  -0.000041   0.000029
     41       0.036329   0.006342  -0.056629   0.000047  -0.000020   0.000024
     42      -0.444073   0.550315  -0.232632  -0.001064  -0.000248  -0.000098
     43       0.400337  -0.475332   0.225754   0.000962   0.000245   0.000091
     44       0.013286  -0.007984  -0.007636  -0.000055   0.000004  -0.000007
     45      -0.207504  -0.262056  -0.165025  -0.000486   0.000007  -0.000203
     46      -0.527512  -0.619300  -0.439152  -0.000875   0.000123  -0.000594
     47       0.016376   0.014470  -0.001601  -0.000177  -0.000055   0.000002
     48       0.311573   0.047112  -0.435154   0.000225  -0.000199   0.000187
     49       0.065141   0.031500  -0.091361   0.000111  -0.000021   0.000034
     50      -0.466118  -0.081494   0.684307  -0.000426   0.000201  -0.000192
     51       0.000087   0.000046  -0.000179  -0.000049  -0.000021   0.000011
     52       0.000056  -0.000187  -0.000018  -0.000038  -0.000020   0.000014
     53       0.000113   0.000001  -0.000007   0.000022   0.000014  -0.000002


-----------
IR SPECTRUM
-----------

 Mode   freq       eps      Int      T**2         TX        TY        TZ
       cm**-1   L/(mol*cm) km/mol    a.u.
----------------------------------------------------------------------------
  8:     46.20   0.003204   16.19  0.021645  (-0.121271  0.065008  0.052082)
  9:     66.52   0.001027    5.19  0.004818  (-0.045458 -0.049696  0.016788)
 10:     88.89   0.001767    8.93  0.006203  ( 0.001726  0.078565  0.005295)
 11:    115.36   0.000702    3.55  0.001899  (-0.023087 -0.036953  0.000312)
 12:    133.84   0.000869    4.39  0.002025  (-0.018382 -0.030925  0.027041)
 13:    195.50   0.003498   17.68  0.005583  (-0.046642 -0.049902  0.030295)
 14:    248.77   0.000508    2.57  0.000638  ( 0.013025 -0.013884  0.016588)
 15:    289.24   0.003050   15.41  0.003291  (-0.025626 -0.051255  0.002617)
 16:    385.99   0.000421    2.13  0.000341  ( 0.006394  0.016879  0.003838)
 17:    403.12   0.030679  155.04  0.023749  ( 0.046221  0.144120 -0.029027)
 18:    448.82   0.040853  206.46  0.028405  (-0.087545 -0.142443  0.021240)
 19:    468.52   0.005760   29.11  0.003837  (-0.000217 -0.061409 -0.008095)
 20:    568.87   0.003175   16.05  0.001742  ( 0.001733 -0.011364  0.040121)
 21:    586.29   0.006728   34.00  0.003581  (-0.054953 -0.023025 -0.005590)
 22:    676.53   0.068648  346.92  0.031665  (-0.098537 -0.146551  0.021871)
 23:    686.96   0.057696  291.57  0.026210  ( 0.061462  0.131673 -0.071375)
 24:    749.74   0.000684    3.46  0.000285  (-0.006319  0.002749 -0.015404)
 25:    760.86   0.028199  142.51  0.011566  ( 0.062650  0.071773 -0.049894)
 26:    819.18   0.005135   25.95  0.001956  (-0.019690 -0.019913  0.034232)
 27:    832.56   0.006898   34.86  0.002585  (-0.033869 -0.030430  0.022636)
 28:    901.76   0.020189  102.02  0.006986  (-0.058298  0.036139 -0.047767)
 29:    954.81   0.003061   15.47  0.001000  ( 0.006743  0.025252 -0.017810)
 30:    970.77   0.004367   22.07  0.001404  (-0.021002  0.030684  0.004606)
 31:   1011.45   0.000087    0.44  0.000027  ( 0.002343 -0.004564  0.000621)
 32:   1025.16   0.001781    9.00  0.000542  (-0.022644 -0.003831  0.003824)
 33:   1066.78   0.112357  567.80  0.032867  ( 0.073596 -0.163373  0.027577)
 34:   1099.97   0.042140  212.96  0.011955  ( 0.050311 -0.076547  0.059703)
 35:   1179.17   0.029954  151.37  0.007927  ( 0.061238 -0.057876 -0.028766)
 36:   1186.94   0.222448  1124.16  0.058485  (-0.101268  0.218855  0.018220)
 37:   1272.22   0.051281  259.16  0.012579  ( 0.044608 -0.095204  0.039055)
 38:   1293.84   0.177180  895.39  0.042734  ( 0.122176 -0.149068  0.074739)
 39:   1352.38   0.008356   42.23  0.001928  ( 0.034920 -0.005522  0.026043)
 40:   1398.42   0.150224  759.17  0.033523  (-0.119792  0.111860 -0.081612)
 41:   1432.75   0.045189  228.37  0.009842  ( 0.078646  0.014865  0.058620)
 42:   1458.70   0.001277    6.46  0.000273  ( 0.009993 -0.003796 -0.012609)
 43:   1463.59   0.002533   12.80  0.000540  (-0.008484 -0.021377  0.003333)
 44:   1489.12   0.014903   75.31  0.003123  ( 0.004313 -0.044956 -0.032916)
 45:   1544.68   0.164574  831.69  0.033248  (-0.074931 -0.099358 -0.133272)
 46:   1626.73   0.086103  435.13  0.016518  ( 0.048954 -0.111186 -0.041939)
 47:   1661.52   0.114226  577.25  0.021454  (-0.089510 -0.064056 -0.096636)
 48:   3047.14   0.022672  114.58  0.002322  ( 0.031314  0.009492  0.035373)
 49:   3127.56   0.005423   27.40  0.000541  (-0.008799  0.021520  0.000723)
 50:   3130.03   0.005279   26.68  0.000526  ( 0.017334  0.005662 -0.013920)
 51:   3205.11   0.004659   23.55  0.000454  (-0.017920  0.004536 -0.010581)
 52:   3243.36   0.000322    1.63  0.000031  (-0.003295  0.003210  0.003135)
 53:   3255.81   0.000746    3.77  0.000071  (-0.004620  0.006577 -0.002621)

* The epsilon (eps) is given for a Dirac delta lineshape.
** The dipole moment derivative (T) already includes vibrational overlap.

The first frequency considered to be a vibration is 8
The total number of vibrations considered is 46


--------------------------
THERMOCHEMISTRY AT 298.15K
--------------------------

Temperature         ... 298.15 K
Pressure            ... 1.00 atm
Total Mass          ... 189.18 AMU

Throughout the following assumptions are being made:
  (1) The electronic state is orbitally nondegenerate
  (2) There are no thermally accessible electronically excited states
  (3) Hindered rotations indicated by low frequency modes are not
      treated as such but are treated as vibrations and this may
      cause some error
  (4) All equations used are the standard statistical mechanics
      equations for an ideal gas
  (5) All vibrations are strictly harmonic

freq.      46.20  E(vib)   ...       0.53 
freq.      66.52  E(vib)   ...       0.50 
freq.      88.89  E(vib)   ...       0.47 
freq.     115.36  E(vib)   ...       0.44 
freq.     133.84  E(vib)   ...       0.42 
freq.     195.50  E(vib)   ...       0.36 
freq.     248.77  E(vib)   ...       0.31 
freq.     289.24  E(vib)   ...       0.27 
freq.     385.99  E(vib)   ...       0.20 
freq.     403.12  E(vib)   ...       0.19 
freq.     448.82  E(vib)   ...       0.17 
freq.     468.52  E(vib)   ...       0.16 
freq.     568.87  E(vib)   ...       0.11 
freq.     586.29  E(vib)   ...       0.11 
freq.     676.53  E(vib)   ...       0.08 
freq.     686.96  E(vib)   ...       0.07 
freq.     749.74  E(vib)   ...       0.06 
freq.     760.86  E(vib)   ...       0.06 
freq.     819.18  E(vib)   ...       0.05 
freq.     832.56  E(vib)   ...       0.04 
freq.     901.76  E(vib)   ...       0.03 
freq.     954.81  E(vib)   ...       0.03 
freq.     970.77  E(vib)   ...       0.03 
freq.    1011.45  E(vib)   ...       0.02 
freq.    1025.16  E(vib)   ...       0.02 
freq.    1066.78  E(vib)   ...       0.02 
freq.    1099.97  E(vib)   ...       0.02 
freq.    1179.17  E(vib)   ...       0.01 
freq.    1186.94  E(vib)   ...       0.01 
freq.    1272.22  E(vib)   ...       0.01 
freq.    1293.84  E(vib)   ...       0.01 
freq.    1352.38  E(vib)   ...       0.01 
freq.    1398.42  E(vib)   ...       0.00 
freq.    1432.75  E(vib)   ...       0.00 
freq.    1458.70  E(vib)   ...       0.00 
freq.    1463.59  E(vib)   ...       0.00 
freq.    1489.12  E(vib)   ...       0.00 
freq.    1544.68  E(vib)   ...       0.00 
freq.    1626.73  E(vib)   ...       0.00 
freq.    1661.52  E(vib)   ...       0.00 
freq.    3047.14  E(vib)   ...       0.00 
freq.    3127.56  E(vib)   ...       0.00 
freq.    3130.03  E(vib)   ...       0.00 
freq.    3205.11  E(vib)   ...       0.00 
freq.    3243.36  E(vib)   ...       0.00 
freq.    3255.81  E(vib)   ...       0.00 

------------
INNER ENERGY
------------

The inner energy is: U= E(el) + E(ZPE) + E(vib) + E(rot) + E(trans)
    E(el)   - is the total energy from the electronic structure calculation
              = E(kin-el) + E(nuc-el) + E(el-el) + E(nuc-nuc)
    E(ZPE)  - the the zero temperature vibrational energy from the frequency calculation
    E(vib)  - the the finite temperature correction to E(ZPE) due to population
              of excited vibrational states
    E(rot)  - is the rotational thermal energy
    E(trans)- is the translational thermal energy

Summary of contributions to the inner energy U:
Electronic energy                ...   -990.26692560 Eh
Zero point energy                ...      0.12067800 Eh      75.73 kcal/mol
Thermal vibrational correction   ...      0.00769330 Eh       4.83 kcal/mol
Thermal rotational correction    ...      0.00141627 Eh       0.89 kcal/mol
Thermal translational correction ...      0.00141627 Eh       0.89 kcal/mol
-----------------------------------------------------------------------
Total thermal energy                   -990.13572176 Eh


Summary of corrections to the electronic energy:
(perhaps to be used in another calculation)
Total thermal correction                  0.01052584 Eh       6.61 kcal/mol
Non-thermal (ZPE) correction              0.12067800 Eh      75.73 kcal/mol
-----------------------------------------------------------------------
Total correction                          0.13120384 Eh      82.33 kcal/mol


--------
ENTHALPY
--------

The enthalpy is H = U + kB*T
                kB is Boltzmann's constant
Total free energy                 ...   -990.13572176 Eh 
Thermal Enthalpy correction       ...      0.00094421 Eh       0.59 kcal/mol
-----------------------------------------------------------------------
Total Enthalpy                    ...   -990.13477755 Eh


Note: Only C1 symmetry has been detected, increase convergence thresholds 
      if your molecule has a higher symmetry. Symmetry factor of 1.0 is   
      used for the rotational entropy correction. 
 

Note: Rotational entropy computed according to Herzberg 
Infrared and Raman Spectra, Chapter V,1, Van Nostrand Reinhold, 1945 
Point Group:  C1, Symmetry Number:   1  
Rotational constants in cm-1:     0.032494     0.028189     0.019350 

Vibrational entropy computed according to the QRRHO of S. Grimme
Chem.Eur.J. 2012 18 9955


-------
ENTROPY
-------

The entropy contributions are T*S = T*(S(el)+S(vib)+S(rot)+S(trans))
     S(el)   - electronic entropy
     S(vib)  - vibrational entropy
     S(rot)  - rotational entropy
     S(trans)- translational entropy
The entropies will be listed as multiplied by the temperature to get
units of energy

Electronic entropy                ...      0.00000000 Eh      0.00 kcal/mol
Vibrational entropy               ...      0.01355520 Eh      8.51 kcal/mol
Rotational entropy                ...      0.01467575 Eh      9.21 kcal/mol
Translational entropy             ...      0.01977419 Eh     12.41 kcal/mol
-----------------------------------------------------------------------
Final entropy term                ...      0.04800514 Eh     30.12 kcal/mol

In case the symmetry of your molecule has not been determined correctly
or in case you have a reason to use a different symmetry number we print 
out the resulting rotational entropy values for sn=1,12 :
 --------------------------------------------------------
|  sn= 1 | S(rot)=       0.01467575 Eh      9.21 kcal/mol|
|  sn= 2 | S(rot)=       0.01402130 Eh      8.80 kcal/mol|
|  sn= 3 | S(rot)=       0.01363846 Eh      8.56 kcal/mol|
|  sn= 4 | S(rot)=       0.01336684 Eh      8.39 kcal/mol|
|  sn= 5 | S(rot)=       0.01315615 Eh      8.26 kcal/mol|
|  sn= 6 | S(rot)=       0.01298401 Eh      8.15 kcal/mol|
|  sn= 7 | S(rot)=       0.01283846 Eh      8.06 kcal/mol|
|  sn= 8 | S(rot)=       0.01271238 Eh      7.98 kcal/mol|
|  sn= 9 | S(rot)=       0.01260117 Eh      7.91 kcal/mol|
|  sn=10 | S(rot)=       0.01250170 Eh      7.84 kcal/mol|
|  sn=11 | S(rot)=       0.01241170 Eh      7.79 kcal/mol|
|  sn=12 | S(rot)=       0.01232955 Eh      7.74 kcal/mol|
 --------------------------------------------------------


-------------------
GIBBS FREE ENERGY
-------------------

The Gibbs free energy is G = H - T*S

Total enthalpy                    ...   -990.13477755 Eh 
Total entropy correction          ...     -0.04800514 Eh    -30.12 kcal/mol
-----------------------------------------------------------------------
Final Gibbs free energy         ...   -990.18278269 Eh

For completeness - the Gibbs free energy minus the electronic energy
G-E(el)                           ...      0.08414292 Eh     52.80 kcal/mol



Timings for individual modules:

Sum of individual times         ...    47015.873 sec (= 783.598 min)
GTO integral calculation        ...       94.459 sec (=   1.574 min)   0.2 %
SCF iterations                  ...     1721.977 sec (=  28.700 min)   3.7 %
SCF Gradient evaluation         ...      412.231 sec (=   6.871 min)   0.9 %
Geometry relaxation             ...        2.422 sec (=   0.040 min)   0.0 %
Numerical frequency calculation ...     2412.211 sec (=  40.204 min)   5.1 %
NEB Iterations                  ...    42372.574 sec (= 706.210 min)  90.1 %
                             ****ORCA TERMINATED NORMALLY****
TOTAL RUN TIME: 0 days 13 hours 3 minutes 56 seconds 859 msec
