
                                 *****************
                                 * O   R   C   A *
                                 *****************

                                            #,                                       
                                            ###                                      
                                            ####                                     
                                            #####                                    
                                            ######                                   
                                           ########,                                 
                                     ,,################,,,,,                         
                               ,,#################################,,                 
                          ,,##########################################,,             
                       ,#########################################, ''#####,          
                    ,#############################################,,   '####,        
                  ,##################################################,,,,####,       
                ,###########''''           ''''###############################       
              ,#####''   ,,,,##########,,,,          '''####'''          '####       
            ,##' ,,,,###########################,,,                        '##       
           ' ,,###''''                  '''############,,,                           
         ,,##''                                '''############,,,,        ,,,,,,###''
      ,#''                                            '''#######################'''  
     '                                                          ''''####''''         
             ,#######,   #######,   ,#######,      ##                                
            ,#'     '#,  ##    ##  ,#'     '#,    #''#        ######   ,####,        
            ##       ##  ##   ,#'  ##            #'  '#       #        #'  '#        
            ##       ##  #######   ##           ,######,      #####,   #    #        
            '#,     ,#'  ##    ##  '#,     ,#' ,#      #,         ##   #,  ,#        
             '#######'   ##     ##  '#######'  #'      '#     #####' # '####'        



                  #######################################################
                  #                        -***-                        #
                  #          Department of theory and spectroscopy      #
                  #    Directorship and core code : Frank Neese         #
                  #        Max Planck Institute fuer Kohlenforschung    #
                  #                Kaiser Wilhelm Platz 1               #
                  #                 D-45470 Muelheim/Ruhr               #
                  #                      Germany                        #
                  #                                                     #
                  #                  All rights reserved                #
                  #                        -***-                        #
                  #######################################################


                         Program Version 5.0.4 -  RELEASE  -


 With contributions from (in alphabetic order):
   Daniel Aravena         : Magnetic Suceptibility
   Michael Atanasov       : Ab Initio Ligand Field Theory (pilot matlab implementation)
   Alexander A. Auer      : GIAO ZORA, VPT2 properties, NMR spectrum
   Ute Becker             : Parallelization
   Giovanni Bistoni       : ED, misc. LED, open-shell LED, HFLD
   Martin Brehm           : Molecular dynamics
   Dmytro Bykov           : SCF Hessian
   Vijay G. Chilkuri      : MRCI spin determinant printing, contributions to CSF-ICE
   Dipayan Datta          : RHF DLPNO-CCSD density
   Achintya Kumar Dutta   : EOM-CC, STEOM-CC
   Dmitry Ganyushin       : Spin-Orbit,Spin-Spin,Magnetic field MRCI
   Miquel Garcia          : C-PCM and meta-GGA Hessian, CC/C-PCM, Gaussian charge scheme
   Yang Guo               : DLPNO-NEVPT2, F12-NEVPT2, CIM, IAO-localization
   Andreas Hansen         : Spin unrestricted coupled pair/coupled cluster methods
   Benjamin Helmich-Paris : MC-RPA, TRAH-SCF, COSX integrals
   Lee Huntington         : MR-EOM, pCC
   Robert Izsak           : Overlap fitted RIJCOSX, COSX-SCS-MP3, EOM
   Marcus Kettner         : VPT2
   Christian Kollmar      : KDIIS, OOCD, Brueckner-CCSD(T), CCSD density, CASPT2, CASPT2-K
   Simone Kossmann        : Meta GGA functionals, TD-DFT gradient, OOMP2, MP2 Hessian
   Martin Krupicka        : Initial AUTO-CI
   Lucas Lang             : DCDCAS
   Marvin Lechner         : AUTO-CI (C++ implementation), FIC-MRCC
   Dagmar Lenk            : GEPOL surface, SMD
   Dimitrios Liakos       : Extrapolation schemes; Compound Job, initial MDCI parallelization
   Dimitrios Manganas     : Further ROCIS development; embedding schemes
   Dimitrios Pantazis     : SARC Basis sets
   Anastasios Papadopoulos: AUTO-CI, single reference methods and gradients
   Taras Petrenko         : DFT Hessian,TD-DFT gradient, ASA, ECA, R-Raman, ABS, FL, XAS/XES, NRVS
   Peter Pinski           : DLPNO-MP2, DLPNO-MP2 Gradient
   Christoph Reimann      : Effective Core Potentials
   Marius Retegan         : Local ZFS, SOC
   Christoph Riplinger    : Optimizer, TS searches, QM/MM, DLPNO-CCSD(T), (RO)-DLPNO pert. Triples
   Tobias Risthaus        : Range-separated hybrids, TD-DFT gradient, RPA, STAB
   Michael Roemelt        : Original ROCIS implementation
   Masaaki Saitow         : Open-shell DLPNO-CCSD energy and density
   Barbara Sandhoefer     : DKH picture change effects
   Avijit Sen             : IP-ROCIS
   Kantharuban Sivalingam : CASSCF convergence, NEVPT2, FIC-MRCI
   Bernardo de Souza      : ESD, SOC TD-DFT
   Georgi Stoychev        : AutoAux, RI-MP2 NMR, DLPNO-MP2 response
   Willem Van den Heuvel  : Paramagnetic NMR
   Boris Wezisla          : Elementary symmetry handling
   Frank Wennmohs         : Technical directorship


 We gratefully acknowledge several colleagues who have allowed us to
 interface, adapt or use parts of their codes:
   Stefan Grimme, W. Hujo, H. Kruse, P. Pracht,  : VdW corrections, initial TS optimization,
                  C. Bannwarth, S. Ehlert          DFT functionals, gCP, sTDA/sTD-DF
   Ed Valeev, F. Pavosevic, A. Kumar             : LibInt (2-el integral package), F12 methods
   Garnet Chan, S. Sharma, J. Yang, R. Olivares  : DMRG
   Ulf Ekstrom                                   : XCFun DFT Library
   Mihaly Kallay                                 : mrcc  (arbitrary order and MRCC methods)
   Jiri Pittner, Ondrej Demel                    : Mk-CCSD
   Frank Weinhold                                : gennbo (NPA and NBO analysis)
   Christopher J. Cramer and Donald G. Truhlar   : smd solvation model
   Lars Goerigk                                  : TD-DFT with DH, B97 family of functionals
   V. Asgeirsson, H. Jonsson                     : NEB implementation
   FAccTs GmbH                                   : IRC, NEB, NEB-TS, DLPNO-Multilevel, CI-OPT
                                                   MM, QMMM, 2- and 3-layer-ONIOM, Crystal-QMMM,
                                                   LR-CPCM, SF, NACMEs, symmetry and pop. for TD-DFT,
                                                   nearIR, NL-DFT gradient (VV10), updates on ESD,
                                                   ML-optimized integration grids
   S Lehtola, MJT Oliveira, MAL Marques          : LibXC Library
   Liviu Ungur et al                             : ANISO software


 Your calculation uses the libint2 library for the computation of 2-el integrals
 For citations please refer to: http://libint.valeyev.net

 Your ORCA version has been built with support for libXC version: 5.1.0
 For citations please refer to: https://tddft.org/programs/libxc/

 This ORCA versions uses:
   CBLAS   interface :  Fast vector & matrix operations
   LAPACKE interface :  Fast linear algebra routines
   SCALAPACK package :  Parallel linear algebra routines
   Shared memory     :  Shared parallel matrices
   BLAS/LAPACK       :  OpenBLAS 0.3.15  USE64BITINT DYNAMIC_ARCH NO_AFFINITY SkylakeX SINGLE_THREADED
        Core in use  :  SkylakeX
   Copyright (c) 2011-2014, The OpenBLAS Project




***************************************
The coordinates will be read from file: reactants.xyz
***************************************


Your calculation utilizes the SMD solvation module
Please cite in your paper:
A.V. Marenich, C.J. Cramer, D.G. Truhlar J. Phys. Chem. B, 113, (2009), 6378 

XCFun DFT library Copyright 2009-2010 Ulf Ekstrom and contributors.
See http://admol.org/xcfun for more information.
This is free software; see the source code for copying conditions.
There is ABSOLUTELY NO WARRANTY; not even for MERCHANTABILITY or FITNESS FOR A PARTICULAR PURPOSE.
For details see the documentation.
Scientific users of this library should cite U. Ekstrom, L. Visscher, R. Bast, A. J. Thorvaldsen and K. Ruud;
J.Chem.Theor.Comp. 2010, DOI: 10.1021/ct100117s
XCFun Version 0.99 

================================================================================

----- Orbital basis set information -----
Your calculation utilizes the basis: 6-311++G**
   H, Li - Ne  : R. Krishnan, J. S. Binkley, R. Seeger and J. A. Pople, J. Chem. Phys. 72, 650 (1980).
   Na - Ar     : A. D. McLean and G. S. Chandler J. Chem. Phys. 72, 5639, (1980).
   K  - Ca     : J.-P. Blaudeau, M. P. McGrath, L. A. Curtiss and L. Radom, J. Chem. Phys. 107, 5016 (1997).
   Ga - Kr     : L. A. Curtiss, M. P. McGrath, J.-P. Blandeau, N. E. Davis, R. C. Binning and L. Radom, J. Chem. Phys. 103, 6104 (1995).
   Pol./Diff.
   H, Li - Cl  : T. Clark, J. Chandrasekhar and P. v. R. Schleyer, J. Comp. Chem. 4, 294 (1983).
   H - Ne      : M. J. Frisch, J. A. Pople and J. S. Binkley, J. Chem. Phys. 80, 3265 (1984).

----- AuxJ basis set information -----
Your calculation utilizes the auxiliary basis: def2/J
   F. Weigend, Phys. Chem. Chem. Phys. 8, 1057 (2006).

================================================================================
                                        WARNINGS
                       Please study these warnings very carefully!
================================================================================


WARNING: Geometry Optimization
  ===> : Switching off AutoStart
         For restart on a previous wavefunction, please use MOREAD

INFO   : the flag for use of the SHARK integral package has been found!

================================================================================
                                       INPUT FILE
================================================================================
NAME = structure_opt.inp
|  1> !wb97x 6-311++G** OPT CPCM(WATER)
|  2> %maxcore  3500
|  3> %pal
|  4> nprocs 24
|  5> end
|  6> %cpcm
|  7> smd true
|  8> SMDsolvent "water"
|  9> end
| 10> %geom
| 11> ConstrainFragments {1} end
| 12> ConstrainFragments {4} end
| 13> ConnectFragments
| 14> { 1 2 C 5 7 }
| 15> { 1 2 C 0 9 }
| 16> { 2 3 C 13 5 }
| 17> { 3 4 C 13 17 }
| 18> end
| 19> end
| 20> * XYZfile -1 1 reactants.xyz
| 21> %geom
| 22> Fragments
| 23> 1 {0:5} end
| 24> 2 {6:12} end
| 25> 3 {13:16} end
| 26> 4 {17} end
| 27> end
| 28> end
| 29> 
| 30>                          ****END OF INPUT****
================================================================================

                       *****************************
                       * Geometry Optimization Run *
                       *****************************

Geometry optimization settings:
Update method            Update   .... BFGS
Choice of coordinates    CoordSys .... Z-matrix Internals
Initial Hessian          InHess   .... Almoef's Model

Convergence Tolerances:
Energy Change            TolE     ....  5.0000e-06 Eh
Max. Gradient            TolMAXG  ....  3.0000e-04 Eh/bohr
RMS Gradient             TolRMSG  ....  1.0000e-04 Eh/bohr
Max. Displacement        TolMAXD  ....  4.0000e-03 bohr
RMS Displacement         TolRMSD  ....  2.0000e-03 bohr
Strict Convergence                ....  False
------------------------------------------------------------------------------
                        ORCA OPTIMIZATION COORDINATE SETUP
------------------------------------------------------------------------------

The optimization will be done in new redundant internal coordinates
Making redundant internal coordinates   ...  (new redundants) done
Evaluating the initial hessian          ...  (Almloef) done
Evaluating the coordinates              ...  done
Calculating the B-matrix                .... done
Calculating the G-matrix                .... done
Diagonalizing the G-matrix              .... done
Imposing constraints:
 Iter   0:  RMS(Cart)=    0.0000000000 RMS(Int)=    0.0000000000
CONVERGED
Small eigenvalue found = 2.752e-03
Small eigenvalue found = 1.006e-02
Small eigenvalue found = 1.196e-02
The first mode is                       ....   56
The number of degrees of freedom        ....   48
Storing new coordinates                 .... done

    -----------------------------------------------------------------
                    Redundant Internal Coordinates


    -----------------------------------------------------------------
         Definition                    Initial Value    Approx d2E/dq
    -----------------------------------------------------------------
      1. B(N   1,C   0)                  1.3611         0.622347   
      2. B(C   2,N   1)                  1.3582         0.628875   
      3. B(C   3,C   2)                  1.3949         0.613658   
      4. B(C   4,C   3)                  1.3934         0.616971   
      5. B(C   5,C   0)                  1.4122         0.575774   
      6. B(C   5,C   4)                  1.4061         0.588917   
      7. B(O   7,C   5)                  2.3435         0.016853 C 
      8. B(O   7,N   6)                  1.2480         0.844503   
      9. B(O   8,N   6)                  1.3769         0.525866   
     10. B(F   9,C   0)                  1.3500         0.602260 C 
     11. B(F   9,N   6)                  2.8678         0.002044   
     12. B(F   9,O   7)                  2.5821         0.005837   
     13. B(H  11,H  10)                  2.4818         0.000415   
     14. B(H  12,O   8)                  2.5152         0.001717   
     15. B(H  12,H  11)                  2.4663         0.000439   
     16. B(H  12,N   6)                  2.7029         0.000861   
     17. B(C  13,H  10)                  6.6420         0.000000 C 
     18. B(H  14,C  13)                  1.0938         0.355111   
     19. B(H  15,C  13)                  1.0934         0.355645   
     20. B(H  16,C  13)                  1.0932         0.355890   
     21. B(S  17,C  13)                  1.8028         0.369754 C 
     22. A(C   5,C   0,F   9)          121.1725         0.421471 C 
     23. A(N   1,C   0,C   5)          120.1571         0.425830   
     24. A(N   1,C   0,F   9)          118.6704         0.424592 C 
     25. A(C   0,N   1,C   2)          121.9524         0.429796   
     26. A(N   1,C   2,C   3)          120.0262         0.431531   
     27. A(C   2,C   3,C   4)          119.3498         0.432882   
     28. A(C   3,C   4,C   5)          120.4718         0.429694   
     29. A(C   4,C   5,O   7)          147.4261         0.238582 C 
     30. A(C   0,C   5,O   7)           94.5313         0.237820 C 
     31. A(C   0,C   5,C   4)          118.0425         0.424407   
     32. A(O   8,N   6,H  12)           67.2752         0.152046   
     33. A(O   7,N   6,H  12)          174.2234         0.159181   
     34. A(O   7,N   6,O   8)          118.5014         0.433822   
     35. A(F   9,N   6,H  12)          110.0144         0.106848   
     36. A(O   7,N   6,F   9)           64.2090         0.186619   
     37. A(N   6,O   7,F   9)           89.9947         0.212791   
     38. A(C   5,O   7,N   6)           31.7456         0.248611 C 
     39. A(C   5,O   7,F   9)           58.2491         0.140475 C 
     40. A(N   6,O   8,H  12)           82.3972         0.162696   
     41. A(N   6,F   9,O   7)           25.7962         0.120482   
     42. A(C   0,F   9,O   7)           86.0471         0.203997 C 
     43. A(C   0,F   9,N   6)           60.2509         0.179684 C 
     44. A(H  11,H  10,C  13)          142.3864         0.089345 C 
     45. A(H  10,H  11,H  12)          119.7063         0.095112   
     46. A(N   6,H  12,O   8)           30.3275         0.103999   
     47. A(N   6,H  12,H  11)          126.7169         0.097913   
     48. A(O   8,H  12,H  11)          157.0445         0.099419   
     49. A(H  14,C  13,H  15)          109.0092         0.289637   
     50. A(H  14,C  13,H  16)          108.9101         0.289668   
     51. A(H  15,C  13,H  16)          109.0329         0.289736   
     52. A(H  10,C  13,H  14)          129.3689         0.090990 C 
     53. A(H  10,C  13,H  15)           77.6348         0.090990 C 
     54. A(H  10,C  13,H  16)          116.0131         0.090991 C 
     55. A(H  14,C  13,S  17)          109.9978         0.339461 C 
     56. A(H  15,C  13,S  17)          109.9760         0.339547 C 
     57. A(H  16,C  13,S  17)          109.8884         0.339586 C 
     58. A(H  10,C  13,S  17)           33.0697         0.091485   
     59. D(C   2,N   1,C   0,C   5)     -0.1041         0.028432   
     60. D(C   2,N   1,C   0,F   9)    179.9112         0.028432 C 
     61. D(C   3,C   2,N   1,C   0)      0.1066         0.025783   
     62. D(C   4,C   3,C   2,N   1)     -0.0956         0.020965   
     63. D(C   5,C   4,C   3,C   2)      0.0854         0.021202   
     64. D(C   4,C   5,C   0,N   1)      0.0896         0.022761   
     65. D(O   7,C   5,C   0,N   1)    179.9933         0.022761 C 
     66. D(O   7,C   5,C   4,C   3)   -179.9036         0.021656 C 
     67. D(C   0,C   5,C   4,C   3)     -0.0818         0.021656   
     68. D(C   4,C   5,C   0,F   9)   -179.9260         0.022761 C 
     69. D(O   7,C   5,C   0,F   9)     -0.0223         0.022761 C 
     70. D(F   9,O   7,C   5,C   0)      0.0117         0.001517 C 
     71. D(N   6,O   7,C   5,C   0)   -179.9521         0.001517 C 
     72. D(N   6,O   7,C   5,C   4)     -0.1099         0.001517 C 
     73. D(F   9,O   7,C   5,C   4)    179.8539         0.001517 C 
     74. D(F   9,O   7,N   6,O   8)    179.9932         0.079747   
     75. D(F   9,O   7,N   6,H  12)      0.1568         0.079747   
     76. D(C   5,O   7,N   6,O   8)   -179.9761         0.079747 C 
     77. D(C   5,O   7,N   6,H  12)      0.1876         0.079747 C 
     78. D(C   5,O   7,N   6,F   9)      0.0308         0.079747 C 
     79. D(H  12,O   8,N   6,O   7)   -179.9821         0.025649   
     80. D(C   0,F   9,O   7,C   5)     -0.0123         0.001503 C 
     81. D(N   6,F   9,C   0,C   5)      0.0236         0.032536 C 
     82. D(O   7,F   9,C   0,N   1)   -179.9952         0.032536 C 
     83. D(O   7,F   9,C   0,C   5)      0.0202         0.032536 C 
     84. D(O   7,F   9,N   6,H  12)   -179.9832         0.001500   
     85. D(C   0,F   9,N   6,O   7)   -179.9922         0.001500 C 
     86. D(C   0,F   9,N   6,H  12)      0.0246         0.001500 C 
     87. D(N   6,F   9,O   7,C   5)     -0.0190         0.001503 C 
     88. D(N   6,F   9,C   0,N   1)   -179.9918         0.032536 C 
     89. D(C   0,F   9,O   7,N   6)      0.0068         0.001503 C 
     90. D(O   7,F   9,O   8,H  12)   -179.9897         0.001500   
     91. D(C   0,F   9,O   8,H  12)      0.0232         0.001500 C 
     92. D(H  12,H  11,H  10,C  13)   -112.5205         0.001501 C 
     93. D(O   8,H  12,N   6,O   7)    179.8441         0.001501   
     94. D(O   8,H  12,N   6,F   9)    179.9943         0.001501   
     95. D(H  11,H  12,N   6,O   7)     -0.1748         0.001501   
     96. D(H  11,H  12,N   6,O   8)    179.9811         0.001501   
     97. D(H  11,H  12,N   6,F   9)     -0.0245         0.001501   
     98. D(H  11,H  12,O   8,N   6)     -0.0388         0.001502   
     99. D(N   6,H  12,H  11,H  10)      0.0466         0.001502   
    100. D(O   8,H  12,H  11,H  10)      0.0710         0.001502   
    101. D(H  14,C  13,H  10,H  11)     48.3148         0.001500 C 
    102. D(H  15,C  13,H  10,H  11)    -56.2490         0.001500 C 
    103. D(H  16,C  13,H  10,H  11)   -161.5865         0.001500 C 
    104. D(S  17,C  13,H  10,H  11)    111.6098         0.001500   
    -----------------------------------------------------------------

Number of atoms                         .... 18
Number of degrees of freedom            .... 104

         *************************************************************
         *                GEOMETRY OPTIMIZATION CYCLE   1            *
         *************************************************************
---------------------------------
CARTESIAN COORDINATES (ANGSTROEM)
---------------------------------
  C      0.000000    0.000000    1.820000
  N      1.178000   -0.196000    2.473000
  C      1.255000   -0.207000    3.829000
  C      0.105000   -0.016000    4.595000
  C     -1.116000    0.187000    3.955000
  C     -1.192000    0.198000    2.551000
  N     -2.456000    0.409000    1.893000
  O     -2.541000    0.423000    0.648000
  O     -3.602000    0.600000    2.632000
  F      0.000000    0.000000    0.470000
  H      2.209000   -0.366000    4.313000
  H      0.163000   -0.026000    5.676000
  H     -2.005000    0.335000    4.557000
  C      6.773000   -4.921000    2.720000
  H      6.636000   -5.957000    2.397000
  H      6.840000   -4.894000    3.811000
  H      7.705000   -4.538000    2.296000
  S      5.386000   -3.913000    2.163000

----------------------------
CARTESIAN COORDINATES (A.U.)
----------------------------
  NO LB      ZA    FRAG     MASS         X           Y           Z
   0 C     6.0000    1    12.011    0.000000    0.000000    3.439302
   1 N     7.0000    1    14.007    2.226097   -0.370386    4.673293
   2 C     6.0000    1    12.011    2.371606   -0.391173    7.235761
   3 C     6.0000    1    12.011    0.198421   -0.030236    8.683292
   4 C     6.0000    1    12.011   -2.108934    0.353379    7.473867
   5 C     6.0000    1    12.011   -2.252554    0.374166    4.820691
   6 N     7.0000    2    14.007   -4.641167    0.772898    3.577252
   7 O     8.0000    2    15.999   -4.801794    0.799354    1.224543
   8 O     8.0000    2    15.999   -6.806794    1.133836    4.973759
   9 F     9.0000    2    18.998    0.000000    0.000000    0.888171
  10 H     1.0000    2     1.008    4.174405   -0.691640    8.150389
  11 H     1.0000    2     1.008    0.308025   -0.049133   10.726086
  12 H     1.0000    2     1.008   -3.788901    0.633058    8.611482
  13 C     6.0000    3    12.011   12.799115   -9.299342    5.140055
  14 H     1.0000    3     1.008   12.540223  -11.257099    4.529674
  15 H     1.0000    3     1.008   12.925727   -9.248320    7.201746
  16 H     1.0000    3     1.008   14.560340   -8.575577    4.338811
  17 S    16.0000    4    32.060   10.178065   -7.394498    4.087478

----------------------------------------------
CARTESIAN COORDINATES OF FRAGMENTS (ANGSTROEM)
----------------------------------------------

 FRAGMENT 1 
  C     0.000000    0.000000    1.820000
  N     1.178000   -0.196000    2.473000
  C     1.255000   -0.207000    3.829000
  C     0.105000   -0.016000    4.595000
  C    -1.116000    0.187000    3.955000
  C    -1.192000    0.198000    2.551000

 FRAGMENT 2 
  N    -2.456000    0.409000    1.893000
  O    -2.541000    0.423000    0.648000
  O    -3.602000    0.600000    2.632000
  F     0.000000    0.000000    0.470000
  H     2.209000   -0.366000    4.313000
  H     0.163000   -0.026000    5.676000
  H    -2.005000    0.335000    4.557000

 FRAGMENT 3 
  C     6.773000   -4.921000    2.720000
  H     6.636000   -5.957000    2.397000
  H     6.840000   -4.894000    3.811000
  H     7.705000   -4.538000    2.296000

 FRAGMENT 4 
  S     5.386000   -3.913000    2.163000

--------------------------------
INTERNAL COORDINATES (ANGSTROEM)
--------------------------------
 C      0   0   0     0.000000000000     0.00000000     0.00000000
 N      1   0   0     1.361069065110     0.00000000     0.00000000
 C      2   1   0     1.358228993948   121.95243626     0.00000000
 C      3   2   1     1.394896770374   120.02620694     0.10655554
 C      4   3   2     1.393431017309   119.34983770   359.90435571
 C      5   4   3     1.406098502951   120.47178172     0.08537773
 N      6   5   4     1.440548853736   120.30882193   180.03842131
 O      7   6   5     1.247976762604   121.13704526   179.93147861
 O      7   6   5     1.376923382037   120.36156660   359.90709941
 F      1   2   3     1.350000000000   118.67037638   179.91115691
 H      3   2   1     1.081504969938   119.86701156   179.98746005
 H      4   3   2     1.082601034546   120.19197482   179.89186186
 H      5   4   3     1.083803026384   118.91636700   180.02085854
 C     11   3   2     6.641970340193   126.84292922   315.32960178
 H     14  11   3     1.093797970377   129.36888381   321.43366639
 H     14  11   3     1.093388768920    77.63475613   216.86985804
 H     14  11   3     1.093201262348   116.01314844   111.53241206
 S     14  11   3     1.802798380297    33.06974683    24.72866837

---------------------------
INTERNAL COORDINATES (A.U.)
---------------------------
 C      0   0   0     0.000000000000     0.00000000     0.00000000
 N      1   0   0     2.572047782411     0.00000000     0.00000000
 C      2   1   0     2.566680825712   121.95243626     0.00000000
 C      3   2   1     2.635972881098   120.02620694     0.10655554
 C      4   3   2     2.633203009226   119.34983770   359.90435571
 C      5   4   3     2.657141087893   120.47178172     0.08537773
 N      6   5   4     2.722242816095   120.30882193   180.03842131
 O      7   6   5     2.358334302820   121.13704526   179.93147861
 O      7   6   5     2.602008099442   120.36156660   359.90709941
 F      1   2   3     2.551130280794   118.67037638   179.91115691
 H      3   2   1     2.043748205657   119.86701156   179.98746005
 H      4   3   2     2.045819467592   120.19197482   179.89186186
 H      5   4   3     2.048090902982   118.91636700   180.02085854
 C     11   3   2    12.551504932592   126.84292922   315.32960178
 H     14  11   3     2.066978609851   129.36888381   321.43366639
 H     14  11   3     2.066205331164    77.63475613   216.86985804
 H     14  11   3     2.065850995095   116.01314844   111.53241206
 S     14  11   3     3.406795213437    33.06974683    24.72866837

---------------------
BASIS SET INFORMATION
---------------------
There are 6 groups of distinct atoms

 Group   1 Type C   : 12s6p1d contracted to 5s4p1d pattern {63111/3111/1}
 Group   2 Type N   : 12s6p1d contracted to 5s4p1d pattern {63111/3111/1}
 Group   3 Type O   : 12s6p1d contracted to 5s4p1d pattern {63111/3111/1}
 Group   4 Type F   : 12s6p1d contracted to 5s4p1d pattern {63111/3111/1}
 Group   5 Type H   : 6s1p contracted to 4s1p pattern {3111/1}
 Group   6 Type S   : 14s10p1d contracted to 7s6p1d pattern {6311111/421111/1}

Atom   0C    basis set group =>   1
Atom   1N    basis set group =>   2
Atom   2C    basis set group =>   1
Atom   3C    basis set group =>   1
Atom   4C    basis set group =>   1
Atom   5C    basis set group =>   1
Atom   6N    basis set group =>   2
Atom   7O    basis set group =>   3
Atom   8O    basis set group =>   3
Atom   9F    basis set group =>   4
Atom  10H    basis set group =>   5
Atom  11H    basis set group =>   5
Atom  12H    basis set group =>   5
Atom  13C    basis set group =>   1
Atom  14H    basis set group =>   5
Atom  15H    basis set group =>   5
Atom  16H    basis set group =>   5
Atom  17S    basis set group =>   6
---------------------------------
AUXILIARY/J BASIS SET INFORMATION
---------------------------------
There are 6 groups of distinct atoms

 Group   1 Type C   : 12s5p4d2f1g contracted to 6s4p3d1f1g pattern {711111/2111/211/2/1}
 Group   2 Type N   : 12s5p4d2f1g contracted to 6s4p3d1f1g pattern {711111/2111/211/2/1}
 Group   3 Type O   : 12s5p4d2f1g contracted to 6s4p3d1f1g pattern {711111/2111/211/2/1}
 Group   4 Type F   : 12s5p4d2f1g contracted to 6s4p3d1f1g pattern {711111/2111/211/2/1}
 Group   5 Type H   : 5s2p1d contracted to 3s1p1d pattern {311/2/1}
 Group   6 Type S   : 14s5p5d2f1g contracted to 8s4p3d1f1g pattern {71111111/2111/311/2/1}

Atom   0C    basis set group =>   1
Atom   1N    basis set group =>   2
Atom   2C    basis set group =>   1
Atom   3C    basis set group =>   1
Atom   4C    basis set group =>   1
Atom   5C    basis set group =>   1
Atom   6N    basis set group =>   2
Atom   7O    basis set group =>   3
Atom   8O    basis set group =>   3
Atom   9F    basis set group =>   4
Atom  10H    basis set group =>   5
Atom  11H    basis set group =>   5
Atom  12H    basis set group =>   5
Atom  13C    basis set group =>   1
Atom  14H    basis set group =>   5
Atom  15H    basis set group =>   5
Atom  16H    basis set group =>   5
Atom  17S    basis set group =>   6


           ************************************************************
           *        Program running with 24 parallel MPI-processes    *
           *              working on a common directory               *
           ************************************************************
------------------------------------------------------------------------------
                           ORCA GTO INTEGRAL CALCULATION
                           -- RI-GTO INTEGRALS CHOSEN --
------------------------------------------------------------------------------
------------------------------------------------------------------------------
                   ___                                                        
                  /   \      - P O W E R E D   B Y -                         
                 /     \                                                     
                 |  |  |   _    _      __       _____    __    __             
                 |  |  |  | |  | |    /  \     |  _  \  |  |  /  |          
                  \  \/   | |  | |   /    \    | | | |  |  | /  /          
                 / \  \   | |__| |  /  /\  \   | |_| |  |  |/  /          
                |  |  |   |  __  | /  /__\  \  |    /   |      \           
                |  |  |   | |  | | |   __   |  |    \   |  |\   \          
                \     /   | |  | | |  |  |  |  | |\  \  |  | \   \       
                 \___/    |_|  |_| |__|  |__|  |_| \__\ |__|  \__/        
                                                                              
                      - O R C A' S   B I G   F R I E N D -                    
                                      &                                       
                       - I N T E G R A L  F E E D E R -                       
                                                                              
 v1 FN, 2020, v2 2021                                                         
------------------------------------------------------------------------------


Reading SHARK input file structure_opt.SHARKINP.tmp ... ok
----------------------
SHARK INTEGRAL PACKAGE
----------------------

Number of atoms                             ...     18
Number of basis functions                   ...    314
Number of shells                            ...    154
Maximum angular momentum                    ...      2
Integral batch strategy                     ... SHARK/LIBINT Hybrid
RI-J (if used) integral strategy            ... SPLIT-RIJ (Revised 2003 algorithm where possible)
Printlevel                                  ...      1
Contraction scheme used                     ... SEGMENTED contraction
Coulomb Range Separation                    ... NOT USED
Exchange Range Separation                   ... Long Range
   Mu parameter                             ...  0.300000
   Scaling (regular/separated)              ...  0.157706  0.842294
Finite Nucleus Model                        ... NOT USED
Auxiliary Coulomb fitting basis             ... AVAILABLE
   # of basis functions in Aux-J            ...    656
   # of shells in Aux-J                     ...    212
   Maximum angular momentum in Aux-J        ...      4
Auxiliary J/K fitting basis                 ... NOT available
Auxiliary Correlation fitting basis         ... NOT available
Auxiliary 'external' fitting basis          ... NOT available
Integral threshold                          ...     2.500000e-11
Primitive cut-off                           ...     2.500000e-12
Primitive pair pre-selection threshold      ...     2.500000e-12

Calculating pre-screening integrals         ... done (  0.0 sec) Dimension = 154
Organizing shell pair data                  ... done (  0.1 sec)
Shell pair information
Total number of shell pairs                 ...     11935
Shell pairs after pre-screening             ...      8802
Total number of primitive shell pairs       ...     38500
Primitive shell pairs kept                  ...     20172
          la=0 lb=0:   2698 shell pairs
          la=1 lb=0:   3613 shell pairs
          la=1 lb=1:   1251 shell pairs
          la=2 lb=0:    702 shell pairs
          la=2 lb=1:    486 shell pairs
          la=2 lb=2:     52 shell pairs

Calculating one electron integrals          ... done (  0.0 sec)
Calculating RI/J V-Matrix + Cholesky decomp.... done (  0.0 sec)
Calculating Nuclear repulsion               ... done (  0.0 sec) ENN=    670.489276393078 Eh

SHARK setup successfully completed in   0.5 seconds

Maximum memory used throughout the entire GTOINT-calculation: 17.5 MB


           ************************************************************
           *        Program running with 24 parallel MPI-processes    *
           *              working on a common directory               *
           ************************************************************
-------------------------------------------------------------------------------
                                 ORCA SCF
-------------------------------------------------------------------------------

------------
SCF SETTINGS
------------
Hamiltonian:
 Density Functional     Method          .... DFT(GTOs)
 Exchange Functional    Exchange        .... WB97X
 Correlation Functional Correlation     .... WB97X
 Gradients option       PostSCFGGA      .... off
 Hybrid DFT is turned on
   Fraction HF Exchange ScalHFX         ....  0.157706
   Scaling of DF-GGA-X  ScalDFX         ....  0.000000
   Scaling of DF-GGA-C  ScalDFC         ....  1.000000
   Scaling of DF-LDA-C  ScalLDAC        ....  1.000000
   Perturbative correction              ....  0.000000
   Density functional embedding theory  .... OFF
 Long-range corrected/Screened/Range-Separated Hybrid DFT is turned on
   Amount of maximum screened exact exchange              ....  0.842294
   Range separation parameter mu (erf(mu*r12)/r12)        ....  0.300000
 RI-approximation to the Coulomb term is turned on
   Number of AuxJ basis functions       .... 656
   RIJ-COSX (HFX calculated with COS-X)).... on


General Settings:
 Integral files         IntName         .... structure_opt
 Hartree-Fock type      HFTyp           .... RHF
 Total Charge           Charge          ....   -1
 Multiplicity           Mult            ....    1
 Number of Electrons    NEL             ....   98
 Basis Dimension        Dim             ....  314
 Nuclear Repulsion      ENuc            ....    670.4892763931 Eh

Convergence Acceleration:
 DIIS                   CNVDIIS         .... on
   Start iteration      DIISMaxIt       ....    12
   Startup error        DIISStart       ....  0.200000
   # of expansion vecs  DIISMaxEq       ....     5
   Bias factor          DIISBfac        ....   1.050
   Max. coefficient     DIISMaxC        ....  10.000
 Trust-Rad. Augm. Hess. CNVTRAH         .... auto
   Auto Start mean grad. ratio tolernc. ....  1.125000
   Auto Start start iteration           ....    20
   Auto Start num. interpolation iter.  ....    10
   Max. Number of Micro iterations      ....    16
   Max. Number of Macro iterations      .... Maxiter - #DIIS iter
   Number of Davidson start vectors     ....     2
   Converg. threshold I  (grad. norm)   ....   1.000e-05
   Converg. threshold II (energy diff.) ....   1.000e-08
   Grad. Scal. Fac. for Micro threshold ....   0.100
   Minimum threshold for Micro iter.    ....   0.010
   NR start threshold (gradient norm)   ....   0.001
   Initial trust radius                 ....   0.400
   Minimum AH scaling param. (alpha)    ....   1.000
   Maximum AH scaling param. (alpha)    .... 1000.000
   Orbital update algorithm             .... Taylor
   White noise on init. David. guess    .... on
   Maximum white noise                  ....   0.010
   Quad. conv. algorithm                .... NR
 SOSCF                  CNVSOSCF        .... on
   Start iteration      SOSCFMaxIt      ....   150
   Startup grad/error   SOSCFStart      ....  0.003300
 Level Shifting         CNVShift        .... on
   Level shift para.    LevelShift      ....    0.2500
   Turn off err/grad.   ShiftErr        ....    0.0010
 Zerner damping         CNVZerner       .... off
 Static damping         CNVDamp         .... on
   Fraction old density DampFac         ....    0.7000
   Max. Damping (<1)    DampMax         ....    0.9800
   Min. Damping (>=0)   DampMin         ....    0.0000
   Turn off err/grad.   DampErr         ....    0.1000
 Fernandez-Rico         CNVRico         .... off

SCF Procedure:
 Maximum # iterations   MaxIter         ....   125
 SCF integral mode      SCFMode         .... Direct
   Integral package                     .... SHARK and LIBINT hybrid scheme
 Reset frequency        DirectResetFreq ....    20
 Integral Threshold     Thresh          ....  2.500e-11 Eh
 Primitive CutOff       TCut            ....  2.500e-12 Eh

Convergence Tolerance:
 Convergence Check Mode ConvCheckMode   .... Total+1el-Energy
 Convergence forced     ConvForced      .... 0
 Energy Change          TolE            ....  1.000e-08 Eh
 1-El. energy change                    ....  1.000e-05 Eh
 Orbital Gradient       TolG            ....  1.000e-05
 Orbital Rotation angle TolX            ....  1.000e-05
 DIIS Error             TolErr          ....  5.000e-07


Diagonalization of the overlap matrix:
Smallest eigenvalue                        ... 4.398e-06
Time for diagonalization                   ...    0.051 sec
Threshold for overlap eigenvalues          ... 1.000e-08
Number of eigenvalues below threshold      ... 0
Time for construction of square roots      ...    0.025 sec
Total time needed                          ...    0.078 sec

Time for model grid setup =    0.289 sec

------------------------------
INITIAL GUESS: MODEL POTENTIAL
------------------------------
Loading Hartree-Fock densities                     ... done
Calculating cut-offs                               ... done
Initializing the effective Hamiltonian             ... done
Setting up the integral package (SHARK)            ... done
Starting the Coulomb interaction                   ... done (   0.6 sec)
Reading the grid                                   ... done
Mapping shells                                     ... done
Starting the XC term evaluation                    ... done (   0.0 sec)
  promolecular density results
     # of electrons  =     96.996053208
     EX              =    -96.552491725
     EC              =     -3.327220638
     EX+EC           =    -99.879712363
Transforming the Hamiltonian                       ... done (   0.0 sec)
Diagonalizing the Hamiltonian                      ... done (   0.0 sec)
Back transforming the eigenvectors                 ... done (   0.0 sec)
Now organizing SCF variables                       ... done
                      ------------------
                      INITIAL GUESS DONE (   1.0 sec)
                      ------------------
-------------------
DFT GRID GENERATION
-------------------

General Integration Accuracy     IntAcc      ... 4.388
Radial Grid Type                 RadialGrid  ... OptM3 with GC (2021)
Angular Grid (max. ang.)         AngularGrid ... 4 (Lebedev-302)
Angular grid pruning method      GridPruning ... 4 (adaptive)
Weight generation scheme         WeightScheme... Becke
Basis function cutoff            BFCut       ... 1.0000e-11
Integration weight cutoff        WCut        ... 1.0000e-14
Angular grids for H and He will be reduced by one unit
Partially contracted basis set               ... off
Rotationally invariant grid construction     ... off

Total number of grid points                  ...    98132
Total number of batches                      ...     1542
Average number of points per batch           ...       63
Average number of grid points per atom       ...     5452
Time for grid setup =    0.641 sec

--------------------
COSX GRID GENERATION
--------------------

GRIDX 1
-------
General Integration Accuracy     IntAcc      ... 3.816
Radial Grid Type                 RadialGrid  ... OptM3 with GC (2021)
Angular Grid (max. ang.)         AngularGrid ... 1 (Lebedev-50)
Angular grid pruning method      GridPruning ... 4 (adaptive)
Weight generation scheme         WeightScheme... Becke
Basis function cutoff            BFCut       ... 1.0000e-11
Integration weight cutoff        WCut        ... 1.0000e-14
Angular grids for H and He will be reduced by one unit
Partially contracted basis set               ... on
Rotationally invariant grid construction     ... off

Total number of grid points                  ...    12251
Total number of batches                      ...      201
Average number of points per batch           ...       60
Average number of grid points per atom       ...      681
UseSFitting                                  ... on

GRIDX 2
-------
General Integration Accuracy     IntAcc      ... 4.020
Radial Grid Type                 RadialGrid  ... OptM3 with GC (2021)
Angular Grid (max. ang.)         AngularGrid ... 2 (Lebedev-110)
Angular grid pruning method      GridPruning ... 4 (adaptive)
Weight generation scheme         WeightScheme... Becke
Basis function cutoff            BFCut       ... 1.0000e-11
Integration weight cutoff        WCut        ... 1.0000e-14
Angular grids for H and He will be reduced by one unit
Partially contracted basis set               ... on
Rotationally invariant grid construction     ... off

Total number of grid points                  ...    31120
Total number of batches                      ...      493
Average number of points per batch           ...       63
Average number of grid points per atom       ...     1729
UseSFitting                                  ... on

GRIDX 3
-------
General Integration Accuracy     IntAcc      ... 4.338
Radial Grid Type                 RadialGrid  ... OptM3 with GC (2021)
Angular Grid (max. ang.)         AngularGrid ... 3 (Lebedev-194)
Angular grid pruning method      GridPruning ... 4 (adaptive)
Weight generation scheme         WeightScheme... Becke
Basis function cutoff            BFCut       ... 1.0000e-11
Integration weight cutoff        WCut        ... 1.0000e-14
Angular grids for H and He will be reduced by one unit
Partially contracted basis set               ... on
Rotationally invariant grid construction     ... off

Total number of grid points                  ...    69216
Total number of batches                      ...     1090
Average number of points per batch           ...       63
Average number of grid points per atom       ...     3845
UseSFitting                                  ... on

Time for X-Grid setup             =    1.115 sec


--------------------
CPCM SOLVATION MODEL
--------------------
CPCM parameters:
  Epsilon                                         ...      78.3550
  Refrac                                          ...       1.3328
  Rsolv                                           ...       1.3000
  Surface type                                    ... GAUSSIAN VDW
  Epsilon function type                           ...         CPCM
Solvent:                                     ... WATER
SMD-CDS solvent descriptors:
  Soln                                       ...    1.3328
  Soln25                                     ...    1.3323
  Sola                                       ...    0.0000
  Solb                                       ...    0.0000
  Solg                                       ...    0.0000
  Solc                                       ...    0.0000
  Solh                                       ...    0.0000
Radii:
 Radius for C  used is    3.4960 Bohr (=   1.8500 Ang.)
 Radius for N  used is    3.5716 Bohr (=   1.8900 Ang.)
 Radius for O  used is    2.8724 Bohr (=   1.5200 Ang.)
 Radius for F  used is    3.2692 Bohr (=   1.7300 Ang.)
 Radius for H  used is    2.2677 Bohr (=   1.2000 Ang.)
 Radius for S  used is    4.7054 Bohr (=   2.4900 Ang.)
Calculating surface                               ...        done! (  0.0s)
GEPOL surface points                              ...         1149
GEPOL Volume                                      ...    1371.6765
GEPOL Surface-area                                ...     850.7094
Calculating surface distance matrix               ...        done! (  0.0s)
Performing Cholesky decomposition & store         ...        done! (  0.2s)
Overall time for CPCM initialization              ...                 0.2s
--------------
SCF ITERATIONS
--------------
ITER       Energy         Delta-E        Max-DP      RMS-DP      [F,P]     Damp
               ***  Starting incremental Fock matrix formation  ***
  0   -989.8661033731   0.000000000000 0.32153845  0.00318445  0.2373463 0.7000
  1   -990.0283348918  -0.162231518772 0.22310447  0.00242411  0.1152137 0.7000
                               ***Turning on DIIS***
  2   -990.1007807575  -0.072445865630 1.45016740  0.00878888  0.0594870 0.0000
  3   -990.2248410654  -0.124060307963 0.71971793  0.00388780  0.0550123 0.0000
  4   -990.2439919434  -0.019150877986 0.27126268  0.00148262  0.0124439 0.0000
  5   -990.2451682746  -0.001176331187 0.13322027  0.00075734  0.0061382 0.0000
                      *** Initiating the SOSCF procedure ***
                           *** Shutting down DIIS ***
                      *** Re-Reading the Fockian *** 
                      *** Removing any level shift *** 
ITER      Energy       Delta-E        Grad      Rot      Max-DP    RMS-DP
  6   -990.24540009  -0.0002318137  0.001504  0.001504  0.039199  0.000256
               *** Restarting incremental Fock matrix formation ***
  7   -990.24548566  -0.0000855754  0.000984  0.002414  0.017140  0.000263
  8   -990.24552488  -0.0000392195  0.000343  0.002533  0.016246  0.000224
  9   -990.24553100  -0.0000061147  0.000682  0.000717  0.010718  0.000142
 10   -990.24553781  -0.0000068104  0.000113  0.000192  0.002086  0.000034
 11   -990.24553788  -0.0000000704  0.000093  0.000128  0.003914  0.000024
 12   -990.24553824  -0.0000003580  0.000015  0.000039  0.003148  0.000019
 13   -990.24553824  -0.0000000051  0.000007  0.000031  0.005596  0.000038
 14   -990.24553824  -0.0000000030  0.000005  0.000012  0.003191  0.000027
                  ***Gradient check signals convergence***
              ***Rediagonalizing the Fockian in SOSCF/NRSCF***

               *****************************************************
               *                     SUCCESS                       *
               *           SCF CONVERGED AFTER  15 CYCLES          *
               *****************************************************

Old exchange energy                            =    -28.432655073 Eh
New exchange energy                            =    -28.432651769 Eh
Exchange energy change after final integration =      0.000003304 Eh
Total energy after final integration           =   -990.245534942 Eh
Final COS-X integration done in                =     3.373 sec

SMD CDS free energy correction energy :                 5.87279     Kcal/mol
Total Energy after SMD CDS correction =              -990.236176059 Eh

----------------
TOTAL SCF ENERGY
----------------

Total Energy       :         -990.23617606 Eh          -26945.69624 eV

Components:
Nuclear Repulsion  :          670.48927639 Eh           18244.94077 eV
Electronic Energy  :        -1660.72545245 Eh          -45190.63701 eV
One Electron Energy:        -2699.97540325 Eh          -73470.06587 eV
Two Electron Energy:         1039.24995080 Eh           28279.42886 eV
Max COSX asymmetry :            0.00000239 Eh               0.00007 eV
CPCM Dielectric    :           -0.12679712 Eh              -3.45032 eV
SMD CDS (Gcds)     :            0.00935888 Eh               0.25467 eV

Virial components:
Potential Energy   :        -1977.46886907 Eh          -53809.66356 eV
Kinetic Energy     :          987.23269301 Eh           26863.96731 eV
Virial Ratio       :            2.00304233


DFT components:
N(Alpha)           :       48.999999644732 electrons
N(Beta)            :       48.999999644732 electrons
N(Total)           :       97.999999289464 electrons
E(XC)              :      -73.338217614161 Eh       
DFET-embed. en.    :        0.000000000000 Eh       
CPCM Solvation Model Properties:
Surface-charge          :            0.94457263
Charge-correction       :           -0.00559492 Eh              -0.15225 eV
Free-energy (cav+disp)  :            0.00935888 Eh               0.25467 eV

---------------
SCF CONVERGENCE
---------------

  Last Energy change         ...   -1.4252e-09  Tolerance :   1.0000e-08
  Last MAX-Density change    ...    4.4409e-15  Tolerance :   1.0000e-07
  Last RMS-Density change    ...    4.1433e-17  Tolerance :   5.0000e-09
  Last Orbital Gradient      ...    1.9480e-06  Tolerance :   1.0000e-05
  Last Orbital Rotation      ...    1.7328e-06  Tolerance :   1.0000e-05

             **** THE GBW FILE WAS UPDATED (structure_opt.gbw) ****
             **** DENSITY structure_opt.scfp WAS UPDATED ****
             **** ENERGY FILE WAS UPDATED (structure_opt.en.tmp) ****
             **** THE GBW FILE WAS UPDATED (structure_opt.gbw) ****
             **** DENSITY structure_opt.scfp WAS UPDATED ****
----------------
ORBITAL ENERGIES
----------------

  NO   OCC          E(Eh)            E(eV) 
   0   2.0000     -88.720315     -2414.2025 
   1   2.0000     -24.793347      -674.6613 
   2   2.0000     -19.275799      -524.5212 
   3   2.0000     -19.244115      -523.6590 
   4   2.0000     -14.670021      -399.1916 
   5   2.0000     -14.435539      -392.8110 
   6   2.0000     -10.437725      -284.0249 
   7   2.0000     -10.364206      -282.0244 
   8   2.0000     -10.338151      -281.3154 
   9   2.0000     -10.321221      -280.8547 
  10   2.0000     -10.290475      -280.0181 
  11   2.0000     -10.236029      -278.5365 
  12   2.0000      -7.916190      -215.4105 
  13   2.0000      -5.879346      -159.9851 
  14   2.0000      -5.871955      -159.7840 
  15   2.0000      -5.871924      -159.7832 
  16   2.0000      -1.396382       -37.9975 
  17   2.0000      -1.348427       -36.6926 
  18   2.0000      -1.151692       -31.3391 
  19   2.0000      -1.109252       -30.1843 
  20   2.0000      -1.008496       -27.4426 
  21   2.0000      -0.943413       -25.6716 
  22   2.0000      -0.874046       -23.7840 
  23   2.0000      -0.836380       -22.7590 
  24   2.0000      -0.796682       -21.6788 
  25   2.0000      -0.769232       -20.9319 
  26   2.0000      -0.706066       -19.2130 
  27   2.0000      -0.686652       -18.6847 
  28   2.0000      -0.669450       -18.2167 
  29   2.0000      -0.665288       -18.1034 
  30   2.0000      -0.661903       -18.0113 
  31   2.0000      -0.633378       -17.2351 
  32   2.0000      -0.620410       -16.8822 
  33   2.0000      -0.615230       -16.7413 
  34   2.0000      -0.563829       -15.3426 
  35   2.0000      -0.537121       -14.6158 
  36   2.0000      -0.527925       -14.3656 
  37   2.0000      -0.527891       -14.3646 
  38   2.0000      -0.494577       -13.4581 
  39   2.0000      -0.494284       -13.4501 
  40   2.0000      -0.456285       -12.4161 
  41   2.0000      -0.432686       -11.7740 
  42   2.0000      -0.421852       -11.4792 
  43   2.0000      -0.416498       -11.3335 
  44   2.0000      -0.407968       -11.1014 
  45   2.0000      -0.390929       -10.6377 
  46   2.0000      -0.384928       -10.4744 
  47   2.0000      -0.259073        -7.0497 
  48   2.0000      -0.259040        -7.0488 
  49   0.0000      -0.064930        -1.7668 
  50   0.0000       0.022659         0.6166 
  51   0.0000       0.051326         1.3966 
  52   0.0000       0.055492         1.5100 
  53   0.0000       0.059677         1.6239 
  54   0.0000       0.070799         1.9265 
  55   0.0000       0.075678         2.0593 
  56   0.0000       0.088174         2.3993 
  57   0.0000       0.090188         2.4541 
  58   0.0000       0.096214         2.6181 
  59   0.0000       0.102216         2.7814 
  60   0.0000       0.111712         3.0398 
  61   0.0000       0.126617         3.4454 
  62   0.0000       0.127405         3.4669 
  63   0.0000       0.134832         3.6690 
  64   0.0000       0.138190         3.7603 
  65   0.0000       0.141073         3.8388 
  66   0.0000       0.150669         4.0999 
  67   0.0000       0.158264         4.3066 
  68   0.0000       0.164136         4.4664 
  69   0.0000       0.166531         4.5315 
  70   0.0000       0.171421         4.6646 
  71   0.0000       0.172597         4.6966 
  72   0.0000       0.179972         4.8973 
  73   0.0000       0.181552         4.9403 
  74   0.0000       0.185731         5.0540 
  75   0.0000       0.188740         5.1359 
  76   0.0000       0.194016         5.2794 
  77   0.0000       0.197812         5.3827 
  78   0.0000       0.198193         5.3931 
  79   0.0000       0.209079         5.6893 
  80   0.0000       0.213074         5.7980 
  81   0.0000       0.217883         5.9289 
  82   0.0000       0.227204         6.1825 
  83   0.0000       0.228160         6.2085 
  84   0.0000       0.240212         6.5365 
  85   0.0000       0.246060         6.6956 
  86   0.0000       0.249090         6.7781 
  87   0.0000       0.259805         7.0696 
  88   0.0000       0.264789         7.2053 
  89   0.0000       0.269151         7.3240 
  90   0.0000       0.271791         7.3958 
  91   0.0000       0.278232         7.5711 
  92   0.0000       0.279070         7.5939 
  93   0.0000       0.283029         7.7016 
  94   0.0000       0.289614         7.8808 
  95   0.0000       0.297263         8.0889 
  96   0.0000       0.306569         8.3422 
  97   0.0000       0.312240         8.4965 
  98   0.0000       0.316198         8.6042 
  99   0.0000       0.321620         8.7517 
 100   0.0000       0.327391         8.9088 
 101   0.0000       0.340210         9.2576 
 102   0.0000       0.349334         9.5059 
 103   0.0000       0.356247         9.6940 
 104   0.0000       0.362476         9.8635 
 105   0.0000       0.365188         9.9373 
 106   0.0000       0.374286        10.1848 
 107   0.0000       0.381286        10.3753 
 108   0.0000       0.396476        10.7886 
 109   0.0000       0.404436        11.0053 
 110   0.0000       0.408871        11.1259 
 111   0.0000       0.415090        11.2952 
 112   0.0000       0.420193        11.4340 
 113   0.0000       0.427744        11.6395 
 114   0.0000       0.438815        11.9408 
 115   0.0000       0.452991        12.3265 
 116   0.0000       0.457758        12.4562 
 117   0.0000       0.464916        12.6510 
 118   0.0000       0.479832        13.0569 
 119   0.0000       0.484345        13.1797 
 120   0.0000       0.493363        13.4251 
 121   0.0000       0.501719        13.6525 
 122   0.0000       0.523196        14.2369 
 123   0.0000       0.528549        14.3825 
 124   0.0000       0.531196        14.4546 
 125   0.0000       0.550020        14.9668 
 126   0.0000       0.582113        15.8401 
 127   0.0000       0.611460        16.6387 
 128   0.0000       0.613200        16.6860 
 129   0.0000       0.619137        16.8476 
 130   0.0000       0.633113        17.2279 
 131   0.0000       0.645767        17.5722 
 132   0.0000       0.651361        17.7244 
 133   0.0000       0.659559        17.9475 
 134   0.0000       0.674508        18.3543 
 135   0.0000       0.702030        19.1032 
 136   0.0000       0.708704        19.2848 
 137   0.0000       0.726714        19.7749 
 138   0.0000       0.749512        20.3953 
 139   0.0000       0.770614        20.9695 
 140   0.0000       0.772042        21.0083 
 141   0.0000       0.778169        21.1751 
 142   0.0000       0.811608        22.0850 
 143   0.0000       0.828314        22.5396 
 144   0.0000       0.836430        22.7604 
 145   0.0000       0.851854        23.1801 
 146   0.0000       0.857403        23.3311 
 147   0.0000       0.874115        23.7859 
 148   0.0000       0.903395        24.5826 
 149   0.0000       0.911634        24.8068 
 150   0.0000       0.919689        25.0260 
 151   0.0000       0.935130        25.4462 
 152   0.0000       0.954168        25.9642 
 153   0.0000       0.956087        26.0165 
 154   0.0000       0.965799        26.2807 
 155   0.0000       0.973405        26.4877 
 156   0.0000       0.981370        26.7044 
 157   0.0000       0.984217        26.7819 
 158   0.0000       1.002200        27.2712 
 159   0.0000       1.004390        27.3308 
 160   0.0000       1.005173        27.3521 
 161   0.0000       1.034682        28.1551 
 162   0.0000       1.043280        28.3891 
 163   0.0000       1.065540        28.9948 
 164   0.0000       1.077952        29.3326 
 165   0.0000       1.080655        29.4061 
 166   0.0000       1.083700        29.4890 
 167   0.0000       1.139823        31.0161 
 168   0.0000       1.144523        31.1441 
 169   0.0000       1.154200        31.4074 
 170   0.0000       1.172659        31.9097 
 171   0.0000       1.190380        32.3919 
 172   0.0000       1.198929        32.6245 
 173   0.0000       1.212391        32.9908 
 174   0.0000       1.249277        33.9946 
 175   0.0000       1.261361        34.3234 
 176   0.0000       1.276417        34.7331 
 177   0.0000       1.279298        34.8115 
 178   0.0000       1.280535        34.8451 
 179   0.0000       1.292884        35.1812 
 180   0.0000       1.298297        35.3285 
 181   0.0000       1.356673        36.9169 
 182   0.0000       1.394500        37.9463 
 183   0.0000       1.405493        38.2454 
 184   0.0000       1.471874        40.0517 
 185   0.0000       1.510824        41.1116 
 186   0.0000       1.543886        42.0113 
 187   0.0000       1.587969        43.2108 
 188   0.0000       1.589594        43.2550 
 189   0.0000       1.590276        43.2736 
 190   0.0000       1.618324        44.0368 
 191   0.0000       1.632477        44.4220 
 192   0.0000       1.655690        45.0536 
 193   0.0000       1.657178        45.0941 
 194   0.0000       1.693360        46.0787 
 195   0.0000       1.696178        46.1554 
 196   0.0000       1.704739        46.3883 
 197   0.0000       1.716321        46.7035 
 198   0.0000       1.749352        47.6023 
 199   0.0000       1.761101        47.9220 
 200   0.0000       1.787181        48.6317 
 201   0.0000       1.809947        49.2512 
 202   0.0000       1.810884        49.2767 
 203   0.0000       1.813411        49.3454 
 204   0.0000       1.843748        50.1709 
 205   0.0000       1.851413        50.3795 
 206   0.0000       1.870004        50.8854 
 207   0.0000       1.910070        51.9756 
 208   0.0000       1.934522        52.6410 
 209   0.0000       1.948336        53.0169 
 210   0.0000       1.971734        53.6536 
 211   0.0000       1.974734        53.7353 
 212   0.0000       1.990899        54.1751 
 213   0.0000       2.011703        54.7412 
 214   0.0000       2.032013        55.2939 
 215   0.0000       2.045928        55.6725 
 216   0.0000       2.055279        55.9270 
 217   0.0000       2.110917        57.4410 
 218   0.0000       2.140833        58.2550 
 219   0.0000       2.147274        58.4303 
 220   0.0000       2.170364        59.0586 
 221   0.0000       2.174313        59.1661 
 222   0.0000       2.177157        59.2434 
 223   0.0000       2.206536        60.0429 
 224   0.0000       2.292847        62.3916 
 225   0.0000       2.323853        63.2352 
 226   0.0000       2.332065        63.4587 
 227   0.0000       2.333696        63.5031 
 228   0.0000       2.401398        65.3454 
 229   0.0000       2.430272        66.1311 
 230   0.0000       2.493970        67.8644 
 231   0.0000       2.564252        69.7768 
 232   0.0000       2.592070        70.5338 
 233   0.0000       2.595844        70.6365 
 234   0.0000       2.605715        70.9051 
 235   0.0000       2.627253        71.4912 
 236   0.0000       2.659805        72.3770 
 237   0.0000       2.662067        72.4385 
 238   0.0000       2.673707        72.7553 
 239   0.0000       2.674356        72.7729 
 240   0.0000       2.694132        73.3111 
 241   0.0000       2.767572        75.3095 
 242   0.0000       2.786365        75.8209 
 243   0.0000       2.832882        77.0866 
 244   0.0000       2.840412        77.2915 
 245   0.0000       2.858231        77.7764 
 246   0.0000       2.867511        78.0289 
 247   0.0000       2.884067        78.4795 
 248   0.0000       2.894203        78.7553 
 249   0.0000       2.902903        78.9920 
 250   0.0000       2.932459        79.7963 
 251   0.0000       2.938115        79.9502 
 252   0.0000       2.960000        80.5457 
 253   0.0000       2.980030        81.0907 
 254   0.0000       2.987280        81.2880 
 255   0.0000       3.001636        81.6787 
 256   0.0000       3.014254        82.0220 
 257   0.0000       3.100879        84.3792 
 258   0.0000       3.154086        85.8270 
 259   0.0000       3.188661        86.7679 
 260   0.0000       3.268414        88.9381 
 261   0.0000       3.307637        90.0054 
 262   0.0000       3.307922        90.0131 
 263   0.0000       3.342840        90.9633 
 264   0.0000       3.368681        91.6665 
 265   0.0000       3.454463        94.0007 
 266   0.0000       3.496934        95.1564 
 267   0.0000       3.558915        96.8430 
 268   0.0000       3.593992        97.7975 
 269   0.0000       3.680857       100.1612 
 270   0.0000       3.703500       100.7774 
 271   0.0000       3.753658       102.1422 
 272   0.0000       3.853612       104.8621 
 273   0.0000       3.885638       105.7336 
 274   0.0000       3.889169       105.8297 
 275   0.0000       3.891311       105.8880 
 276   0.0000       3.903334       106.2151 
 277   0.0000       3.924511       106.7914 
 278   0.0000       4.013315       109.2079 
 279   0.0000       4.060105       110.4811 
 280   0.0000       4.120852       112.1341 
 281   0.0000       4.143954       112.7627 
 282   0.0000       4.169239       113.4507 
 283   0.0000       4.407305       119.9289 
 284   0.0000       4.479044       121.8810 
 285   0.0000       4.503471       122.5457 
 286   0.0000       4.760827       129.5487 
 287   0.0000       4.942735       134.4987 
 288   0.0000       5.071306       137.9972 
 289   0.0000       5.099790       138.7724 
 290   0.0000       5.190452       141.2394 
 291   0.0000       5.218985       142.0158 
 292   0.0000       5.315190       144.6337 
 293   0.0000       5.698677       155.0689 
 294   0.0000       6.129913       166.8034 
 295   0.0000       6.410852       174.4482 
 296   0.0000       6.543681       178.0626 
 297   0.0000       6.840681       186.1444 
 298   0.0000       7.980516       217.1609 
 299   0.0000      17.547779       477.4993 
 300   0.0000      17.551297       477.5951 
 301   0.0000      17.641741       480.0562 
 302   0.0000      23.649984       643.5488 
 303   0.0000      23.891474       650.1201 
 304   0.0000      23.984269       652.6451 
 305   0.0000      24.031124       653.9201 
 306   0.0000      24.071346       655.0146 
 307   0.0000      24.181305       658.0068 
 308   0.0000      35.374902       962.6000 
 309   0.0000      35.657248       970.2830 
 310   0.0000      49.899321      1357.8296 
 311   0.0000      49.963257      1359.5693 
 312   0.0000      66.792680      1817.5212 
 313   0.0000     188.970147      5142.1391 

--------------------
FRAGMENT INFORMATION
--------------------
Fragment  1:    0   1   2   3   4   5 
Fragment  2:    6   7   8   9  10  11  12 
Fragment  3:   13  14  15  16 
Fragment  4:   17 


                    ********************************
                    * MULLIKEN POPULATION ANALYSIS *
                    ********************************

-------------------------
MULLIKEN FRAGMENT CHARGES
-------------------------
 Fragment   0 :  -0.438467
 Fragment   1 :   0.437457
 Fragment   2 :  -0.030913
 Fragment   3 :  -0.968077
Sum of fragment charges:   -1.0000000

---------------------------------
MULLIKEN FRAGMENT OVERLAP CHARGES
---------------------------------
                  0          1          2          3    
      0      20.635562   0.611978   0.000182  -0.001819
      1       0.611978  34.998106   0.000531   0.003977
      2       0.000182   0.000531  11.639670  -0.671511
      3      -0.001819   0.003977  -0.671511  17.302753

-----------------------
MULLIKEN ATOMIC CHARGES
-----------------------
   0 C :   -0.051273
   1 N :   -0.193023
   2 C :   -0.279898
   3 C :   -0.274355
   4 C :    0.434480
   5 C :   -0.074399
   6 N :   -0.072777
   7 O :   -0.051999
   8 O :   -0.239376
   9 F :   -0.101701
  10 H :    0.293826
  11 H :    0.283499
  12 H :    0.325985
  13 C :   -0.415964
  14 H :    0.127940
  15 H :    0.129312
  16 H :    0.127799
  17 S :   -0.968077
Sum of atomic charges:   -1.0000000

--------------------------------
MULLIKEN REDUCED ORBITAL CHARGES
--------------------------------
  0 C s       :     3.290279  s :     3.290279
      pz      :     0.675165  p :     2.600553
      px      :     0.988973
      py      :     0.936415
      dz2     :     0.052757  d :     0.160441
      dxz     :     0.048823
      dyz     :     0.028434
      dx2y2   :     0.013773
      dxy     :     0.016654
  1 N s       :     3.620550  s :     3.620550
      pz      :     1.140501  p :     3.541943
      px      :     1.236449
      py      :     1.164993
      dz2     :     0.008169  d :     0.030530
      dxz     :     0.007242
      dyz     :     0.004753
      dx2y2   :     0.005506
      dxy     :     0.004860
  2 C s       :     3.355425  s :     3.355425
      pz      :     0.812070  p :     2.840318
      px      :     1.178053
      py      :     0.850196
      dz2     :     0.023581  d :     0.084155
      dxz     :     0.032201
      dyz     :     0.014798
      dx2y2   :     0.007219
      dxy     :     0.006355
  3 C s       :     3.209788  s :     3.209788
      pz      :     1.158476  p :     3.011413
      px      :     0.885939
      py      :     0.966998
      dz2     :     0.015294  d :     0.053153
      dxz     :     0.017414
      dyz     :     0.005093
      dx2y2   :     0.008210
      dxy     :     0.007143
  4 C s       :     2.509872  s :     2.509872
      pz      :     0.901646  p :     2.998550
      px      :     1.252597
      py      :     0.844308
      dz2     :     0.016550  d :     0.057098
      dxz     :     0.015854
      dyz     :     0.010573
      dx2y2   :     0.007215
      dxy     :     0.006906
  5 C s       :     3.309860  s :     3.309860
      pz      :     1.073741  p :     2.691399
      px      :     0.491819
      py      :     1.125839
      dz2     :     0.013627  d :     0.073140
      dxz     :     0.029768
      dyz     :     0.010346
      dx2y2   :     0.011216
      dxy     :     0.008184
  6 N s       :     3.590484  s :     3.590484
      pz      :     1.059361  p :     3.373294
      px      :     1.213715
      py      :     1.100218
      dz2     :     0.027719  d :     0.108999
      dxz     :     0.039360
      dyz     :     0.023079
      dx2y2   :     0.008551
      dxy     :     0.010291
  7 O s       :     3.777199  s :     3.777199
      pz      :     1.026528  p :     4.256104
      px      :     1.828395
      py      :     1.401181
      dz2     :     0.009710  d :     0.018696
      dxz     :     0.003512
      dyz     :     0.005305
      dx2y2   :     0.000102
      dxy     :     0.000067
  8 O s       :     3.825092  s :     3.825092
      pz      :     1.624869  p :     4.402170
      px      :     1.218250
      py      :     1.559051
      dz2     :     0.001059  d :     0.012114
      dxz     :     0.004900
      dyz     :     0.000879
      dx2y2   :     0.003118
      dxy     :     0.002158
  9 F s       :     3.918395  s :     3.918395
      pz      :     1.388954  p :     5.177974
      px      :     1.914793
      py      :     1.874227
      dz2     :     0.003097  d :     0.005332
      dxz     :     0.000998
      dyz     :     0.001201
      dx2y2   :     0.000027
      dxy     :     0.000009
 10 H s       :     0.682290  s :     0.682290
      pz      :     0.005473  p :     0.023884
      px      :     0.014120
      py      :     0.004291
 11 H s       :     0.691537  s :     0.691537
      pz      :     0.016375  p :     0.024964
      px      :     0.003655
      py      :     0.004935
 12 H s       :     0.648495  s :     0.648495
      pz      :     0.007743  p :     0.025520
      px      :     0.013375
      py      :     0.004402
 13 C s       :     3.274737  s :     3.274737
      pz      :     1.051757  p :     3.088561
      px      :     1.004857
      py      :     1.031947
      dz2     :     0.015032  d :     0.052666
      dxz     :     0.007982
      dyz     :     0.005083
      dx2y2   :     0.015607
      dxy     :     0.008962
 14 H s       :     0.849366  s :     0.849366
      pz      :     0.005411  p :     0.022695
      px      :     0.004774
      py      :     0.012510
 15 H s       :     0.847956  s :     0.847956
      pz      :     0.013362  p :     0.022732
      px      :     0.004698
      py      :     0.004672
 16 H s       :     0.849507  s :     0.849507
      pz      :     0.005960  p :     0.022694
      px      :     0.011032
      py      :     0.005702
 17 S s       :     6.018638  s :     6.018638
      pz      :     3.890425  p :    10.918015
      px      :     3.366112
      py      :     3.661478
      dz2     :     0.004227  d :     0.031424
      dxz     :     0.005779
      dyz     :     0.003154
      dx2y2   :     0.005190
      dxy     :     0.013073


                     *******************************
                     * LOEWDIN POPULATION ANALYSIS *
                     *******************************

------------------------
LOEWDIN FRAGMENT CHARGES
------------------------
 Fragment   0 :   0.056846
 Fragment   1 :  -0.059297
 Fragment   2 :  -0.355266
 Fragment   3 :  -0.642283

----------------------------
LOEWDIN FRAGMENT BOND ORDERS
----------------------------
                  0          1          2          3    
      0      56.962062   6.779430   0.000751   0.003368
      1       6.779430  43.788180   0.000297   0.001873
      2       0.000751   0.000297  15.418020   1.744014
      3       0.003368   0.001873   1.744014  16.642283

----------------------
LOEWDIN ATOMIC CHARGES
----------------------
   0 C :    0.111447
   1 N :   -0.111226
   2 C :    0.076197
   3 C :   -0.033664
   4 C :    0.077957
   5 C :   -0.063865
   6 N :    0.241468
   7 O :   -0.154393
   8 O :   -0.339152
   9 F :   -0.078079
  10 H :    0.086096
  11 H :    0.084633
  12 H :    0.100130
  13 C :   -0.358663
  14 H :    0.001319
  15 H :    0.000946
  16 H :    0.001132
  17 S :   -0.642283

-------------------------------
LOEWDIN REDUCED ORBITAL CHARGES
-------------------------------
  0 C s       :     2.743774  s :     2.743774
      pz      :     0.849342  p :     2.815634
      px      :     1.080563
      py      :     0.885729
      dz2     :     0.112533  d :     0.329145
      dxz     :     0.100717
      dyz     :     0.050388
      dx2y2   :     0.033881
      dxy     :     0.031626
  1 N s       :     3.151302  s :     3.151302
      pz      :     1.301084  p :     3.903076
      px      :     1.416737
      py      :     1.185256
      dz2     :     0.017389  d :     0.056848
      dxz     :     0.015726
      dyz     :     0.007783
      dx2y2   :     0.009551
      dxy     :     0.006400
  2 C s       :     2.786897  s :     2.786897
      pz      :     1.033113  p :     2.955080
      px      :     1.097507
      py      :     0.824460
      dz2     :     0.060309  d :     0.181827
      dxz     :     0.069048
      dyz     :     0.027964
      dx2y2   :     0.014015
      dxy     :     0.010492
  3 C s       :     2.781269  s :     2.781269
      pz      :     1.081344  p :     3.128045
      px      :     1.092114
      py      :     0.954586
      dz2     :     0.034117  d :     0.124349
      dxz     :     0.045070
      dyz     :     0.008014
      dx2y2   :     0.022214
      dxy     :     0.014935
  4 C s       :     2.779229  s :     2.779229
      pz      :     1.065804  p :     3.014508
      px      :     1.108317
      py      :     0.840386
      dz2     :     0.040912  d :     0.128307
      dxz     :     0.039161
      dyz     :     0.021260
      dx2y2   :     0.015050
      dxy     :     0.011923
  5 C s       :     2.757950  s :     2.757950
      pz      :     1.088426  p :     3.125581
      px      :     0.957180
      py      :     1.079975
      dz2     :     0.039906  d :     0.180334
      dxz     :     0.071781
      dyz     :     0.019848
      dx2y2   :     0.031422
      dxy     :     0.017377
  6 N s       :     3.052084  s :     3.052084
      pz      :     1.205955  p :     3.500085
      px      :     1.215110
      py      :     1.079020
      dz2     :     0.060435  d :     0.206363
      dxz     :     0.076186
      dyz     :     0.035698
      dx2y2   :     0.017513
      dxy     :     0.016531
  7 O s       :     3.581210  s :     3.581210
      pz      :     1.283747  p :     4.540874
      px      :     1.838866
      py      :     1.418261
      dz2     :     0.020435  d :     0.032310
      dxz     :     0.005157
      dyz     :     0.006528
      dx2y2   :     0.000119
      dxy     :     0.000071
  8 O s       :     3.667367  s :     3.667367
      pz      :     1.709923  p :     4.651304
      px      :     1.369894
      py      :     1.571486
      dz2     :     0.001545  d :     0.020480
      dxz     :     0.009263
      dyz     :     0.001173
      dx2y2   :     0.005711
      dxy     :     0.002789
  9 F s       :     3.714950  s :     3.714950
      pz      :     1.535225  p :     5.355760
      px      :     1.934295
      py      :     1.886239
      dz2     :     0.004765  d :     0.007370
      dxz     :     0.001184
      dyz     :     0.001375
      dx2y2   :     0.000037
      dxy     :     0.000009
 10 H s       :     0.843466  s :     0.843466
      pz      :     0.016677  p :     0.070437
      px      :     0.042347
      py      :     0.011413
 11 H s       :     0.842913  s :     0.842913
      pz      :     0.047841  p :     0.072453
      px      :     0.011208
      py      :     0.013404
 12 H s       :     0.826645  s :     0.826645
      pz      :     0.023099  p :     0.073224
      px      :     0.038704
      py      :     0.011421
 13 C s       :     2.858342  s :     2.858342
      pz      :     1.121804  p :     3.393398
      px      :     1.141372
      py      :     1.130223
      dz2     :     0.030089  d :     0.106923
      dxz     :     0.016099
      dyz     :     0.009742
      dx2y2   :     0.031284
      dxy     :     0.019710
 14 H s       :     0.926951  s :     0.926951
      pz      :     0.016043  p :     0.071731
      px      :     0.014555
      py      :     0.041133
 15 H s       :     0.927253  s :     0.927253
      pz      :     0.043410  p :     0.071801
      px      :     0.014466
      py      :     0.013924
 16 H s       :     0.927031  s :     0.927031
      pz      :     0.017876  p :     0.071838
      px      :     0.036746
      py      :     0.017216
 17 S s       :     5.612361  s :     5.612361
      pz      :     3.857748  p :    10.992723
      px      :     3.453945
      py      :     3.681031
      dz2     :     0.005009  d :     0.037198
      dxz     :     0.006799
      dyz     :     0.003697
      dx2y2   :     0.005940
      dxy     :     0.015754


                      *****************************
                      * MAYER POPULATION ANALYSIS *
                      *****************************

  NA   - Mulliken gross atomic population
  ZA   - Total nuclear charge
  QA   - Mulliken gross atomic charge
  VA   - Mayer's total valence
  BVA  - Mayer's bonded valence
  FA   - Mayer's free valence

  ATOM       NA         ZA         QA         VA         BVA        FA
  0 C      6.0513     6.0000    -0.0513     4.3626     4.3626    -0.0000
  1 N      7.1930     7.0000    -0.1930     2.6902     2.6902     0.0000
  2 C      6.2799     6.0000    -0.2799     4.0049     4.0049     0.0000
  3 C      6.2744     6.0000    -0.2744     4.3989     4.3989    -0.0000
  4 C      5.5655     6.0000     0.4345     4.1398     4.1398     0.0000
  5 C      6.0744     6.0000    -0.0744     3.3413     3.3413     0.0000
  6 N      7.0728     7.0000    -0.0728     3.9236     3.9236    -0.0000
  7 O      8.0520     8.0000    -0.0520     2.1919     2.1919    -0.0000
  8 O      8.2394     8.0000    -0.2394     1.9960     1.9960    -0.0000
  9 F      9.1017     9.0000    -0.1017     0.9639     0.9639     0.0000
 10 H      0.7062     1.0000     0.2938     0.8814     0.8814     0.0000
 11 H      0.7165     1.0000     0.2835     0.9007     0.9007    -0.0000
 12 H      0.6740     1.0000     0.3260     0.8343     0.8343     0.0000
 13 C      6.4160     6.0000    -0.4160     3.5720     3.5720     0.0000
 14 H      0.8721     1.0000     0.1279     0.9427     0.9427     0.0000
 15 H      0.8707     1.0000     0.1293     0.9341     0.9341    -0.0000
 16 H      0.8722     1.0000     0.1278     0.9421     0.9421    -0.0000
 17 S     16.9681    16.0000    -0.9681     0.6009     0.6009     0.0000

  Mayer bond orders larger than 0.100000
B(  0-C ,  1-N ) :   1.2758 B(  0-C ,  2-C ) :   0.1811 B(  0-C ,  3-C ) :   0.1490 
B(  0-C ,  4-C ) :   0.2948 B(  0-C ,  5-C ) :   1.2103 B(  0-C ,  6-N ) :  -0.1805 
B(  0-C ,  9-F ) :   1.4398 B(  1-N ,  2-C ) :   1.1758 B(  1-N ,  5-C ) :   0.1795 
B(  2-C ,  3-C ) :   1.6144 B(  2-C , 10-H ) :   0.8761 B(  3-C ,  4-C ) :   1.5007 
B(  3-C ,  8-O ) :   0.1342 B(  3-C , 11-H ) :   0.8416 B(  4-C ,  5-C ) :   1.5800 
B(  4-C ,  6-N ) :  -0.1471 B(  4-C ,  8-O ) :   0.1547 B(  4-C ,  9-F ) :  -0.1284 
B(  4-C , 12-H ) :   0.7552 B(  5-C ,  6-N ) :   0.7583 B(  5-C ,  8-O ) :  -0.1577 
B(  5-C ,  9-F ) :  -0.3913 B(  5-C , 12-H ) :   0.1204 B(  6-N ,  7-O ) :   1.8493 
B(  6-N ,  8-O ) :   1.6525 B(  7-O ,  8-O ) :   0.2601 B( 13-C , 14-H ) :   0.9824 
B( 13-C , 15-H ) :   0.9782 B( 13-C , 16-H ) :   0.9828 B( 13-C , 17-S ) :   0.6297 


-------
TIMINGS
-------

Total SCF time: 0 days 0 hours 0 min 39 sec 

Total time                  ....      39.922 sec
Sum of individual times     ....      38.285 sec  ( 95.9%)

Fock matrix formation       ....      34.844 sec  ( 87.3%)
  Split-RI-J                ....       2.464 sec  (  7.1% of F)
  Chain of spheres X        ....      21.797 sec  ( 62.6% of F)
  XC integration            ....       5.594 sec  ( 16.1% of F)
    Basis function eval.    ....       0.427 sec  (  7.6% of XC)
    Density eval.           ....       0.679 sec  ( 12.1% of XC)
    XC-Functional eval.     ....       0.596 sec  ( 10.6% of XC)
[...]
 290   0.0000       5.205441       141.6472 
 291   0.0000       5.281304       143.7116 
 292   0.0000       5.370888       146.1493 
 293   0.0000       5.849092       159.1619 
 294   0.0000       6.339846       172.5160 
 295   0.0000       6.419937       174.6954 
 296   0.0000       6.554904       178.3680 
 297   0.0000       6.861949       186.7231 
 298   0.0000       7.980528       217.1612 
 299   0.0000      17.547913       477.5030 
 300   0.0000      17.551349       477.5965 
 301   0.0000      17.642249       480.0700 
 302   0.0000      23.701401       644.9479 
 303   0.0000      23.955240       651.8552 
 304   0.0000      24.020191       653.6226 
 305   0.0000      24.030933       653.9149 
 306   0.0000      24.134430       656.7312 
 307   0.0000      24.245619       659.7568 
 308   0.0000      35.451091       964.6732 
 309   0.0000      35.737081       972.4554 
 310   0.0000      49.923033      1358.4748 
 311   0.0000      50.030590      1361.4016 
 312   0.0000      66.806567      1817.8991 
 313   0.0000     188.970157      5142.1394 

--------------------
FRAGMENT INFORMATION
--------------------
Fragment  1:    0   1   2   3   4   5 
Fragment  2:    6   7   8   9  10  11  12 
Fragment  3:   13  14  15  16 
Fragment  4:   17 


                    ********************************
                    * MULLIKEN POPULATION ANALYSIS *
                    ********************************

-------------------------
MULLIKEN FRAGMENT CHARGES
-------------------------
 Fragment   0 :  -0.476261
 Fragment   1 :   0.475160
 Fragment   2 :  -0.031112
 Fragment   3 :  -0.967788
Sum of fragment charges:   -1.0000000

---------------------------------
MULLIKEN FRAGMENT OVERLAP CHARGES
---------------------------------
                  0          1          2          3    
      0      18.009447   0.505875   0.000147  -0.002141
      1       0.505875  35.066707   0.000480   0.004029
      2       0.000147   0.000480  11.639891  -0.668219
      3      -0.002141   0.004029  -0.668219  17.300954

-----------------------
MULLIKEN ATOMIC CHARGES
-----------------------
   0 C :   -0.020814
   1 N :   -0.185307
   2 C :   -0.260664
   3 C :   -0.354093
   4 C :    0.525216
   5 C :   -0.180599
   6 N :   -0.010195
   7 O :   -0.162965
   8 O :   -0.118449
   9 F :   -0.118884
  10 H :    0.281986
  11 H :    0.280619
  12 H :    0.323048
  13 C :   -0.416230
  14 H :    0.127968
  15 H :    0.129378
  16 H :    0.127772
  17 S :   -0.967788
Sum of atomic charges:   -1.0000000

--------------------------------
MULLIKEN REDUCED ORBITAL CHARGES
--------------------------------
  0 C s       :     3.248513  s :     3.248513
      pz      :     0.669085  p :     2.602394
      px      :     0.993466
      py      :     0.939842
      dz2     :     0.057646  d :     0.169907
      dxz     :     0.049901
      dyz     :     0.029403
      dx2y2   :     0.014625
      dxy     :     0.018332
  1 N s       :     3.601129  s :     3.601129
      pz      :     1.141085  p :     3.549662
      px      :     1.252249
      py      :     1.156328
      dz2     :     0.008526  d :     0.034516
      dxz     :     0.008911
      dyz     :     0.005300
      dx2y2   :     0.006018
      dxy     :     0.005761
  2 C s       :     3.289026  s :     3.289026
      pz      :     0.827017  p :     2.882672
      px      :     1.187396
      py      :     0.868259
      dz2     :     0.024908  d :     0.088966
      dxz     :     0.033829
      dyz     :     0.015785
      dx2y2   :     0.007912
      dxy     :     0.006532
  3 C s       :     3.268356  s :     3.268356
      pz      :     1.161187  p :     3.030098
      px      :     0.899158
      py      :     0.969752
      dz2     :     0.015949  d :     0.055639
      dxz     :     0.018329
      dyz     :     0.005647
      dx2y2   :     0.008187
      dxy     :     0.007526
  4 C s       :     2.384967  s :     2.384967
      pz      :     0.928585  p :     3.030143
      px      :     1.254247
      py      :     0.847310
      dz2     :     0.017464  d :     0.059675
      dxz     :     0.015811
      dyz     :     0.011421
      dx2y2   :     0.007795
      dxy     :     0.007184
  5 C s       :     3.368634  s :     3.368634
      pz      :     1.094968  p :     2.738416
      px      :     0.513190
      py      :     1.130258
      dz2     :     0.012958  d :     0.073548
      dxz     :     0.031265
      dyz     :     0.010247
      dx2y2   :     0.010991
      dxy     :     0.008087
  6 N s       :     3.488969  s :     3.488969
      pz      :     1.043117  p :     3.382340
      px      :     1.233082
      py      :     1.106141
      dz2     :     0.037651  d :     0.138887
      dxz     :     0.045416
      dyz     :     0.028750
      dx2y2   :     0.012156
      dxy     :     0.014914
  7 O s       :     3.802934  s :     3.802934
      pz      :     1.022063  p :     4.341866
      px      :     1.841574
      py      :     1.478229
      dz2     :     0.009788  d :     0.018165
      dxz     :     0.003226
      dyz     :     0.005008
      dx2y2   :     0.000088
      dxy     :     0.000053
  8 O s       :     3.784717  s :     3.784717
      pz      :     1.563539  p :     4.313593
      px      :     1.320371
      py      :     1.429683
      dz2     :     0.002368  d :     0.020139
      dxz     :     0.007298
      dyz     :     0.002002
      dx2y2   :     0.004330
      dxy     :     0.004142
  9 F s       :     3.917670  s :     3.917670
      pz      :     1.400328  p :     5.195985
      px      :     1.916793
      py      :     1.878864
      dz2     :     0.003037  d :     0.005229
      dxz     :     0.000975
      dyz     :     0.001174
      dx2y2   :     0.000031
      dxy     :     0.000011
 10 H s       :     0.694734  s :     0.694734
      pz      :     0.004690  p :     0.023280
      px      :     0.014326
      py      :     0.004264
 11 H s       :     0.694193  s :     0.694193
      pz      :     0.016430  p :     0.025188
      px      :     0.003768
      py      :     0.004990
 12 H s       :     0.651110  s :     0.651110
      pz      :     0.007196  p :     0.025842
      px      :     0.014171
      py      :     0.004475
 13 C s       :     3.275027  s :     3.275027
      pz      :     1.051905  p :     3.088539
      px      :     1.003752
      py      :     1.032882
      dz2     :     0.014878  d :     0.052663
      dxz     :     0.008475
      dyz     :     0.004777
      dx2y2   :     0.015658
      dxy     :     0.008876
 14 H s       :     0.849331  s :     0.849331
      pz      :     0.005315  p :     0.022701
      px      :     0.004781
      py      :     0.012605
 15 H s       :     0.847898  s :     0.847898
      pz      :     0.013326  p :     0.022724
      px      :     0.004719
      py      :     0.004679
 16 H s       :     0.849549  s :     0.849549
      pz      :     0.006107  p :     0.022679
      px      :     0.010906
      py      :     0.005667
 17 S s       :     6.017971  s :     6.017971
      pz      :     3.892851  p :    10.918391
      px      :     3.354537
      py      :     3.671003
      dz2     :     0.004251  d :     0.031425
      dxz     :     0.005821
      dyz     :     0.003021
      dx2y2   :     0.005341
      dxy     :     0.012990


                     *******************************
                     * LOEWDIN POPULATION ANALYSIS *
                     *******************************

------------------------
LOEWDIN FRAGMENT CHARGES
------------------------
 Fragment   0 :   0.030515
 Fragment   1 :  -0.032953
 Fragment   2 :  -0.355270
 Fragment   3 :  -0.642292

----------------------------
LOEWDIN FRAGMENT BOND ORDERS
----------------------------
                  0          1          2          3    
      0      57.201315   6.725897   0.000763   0.003415
      1       6.725897  44.209518   0.000297   0.001878
      2       0.000763   0.000297  15.417887   1.744127
      3       0.003415   0.001878   1.744127  16.642292

----------------------
LOEWDIN ATOMIC CHARGES
----------------------
   0 C :    0.082139
   1 N :   -0.081377
   2 C :    0.055329
   3 C :   -0.034006
   4 C :    0.073089
   5 C :   -0.064658
   6 N :    0.202738
   7 O :   -0.220087
   8 O :   -0.194412
   9 F :   -0.088850
  10 H :    0.082398
  11 H :    0.085778
  12 H :    0.099481
  13 C :   -0.358718
  14 H :    0.001247
  15 H :    0.000985
  16 H :    0.001216
  17 S :   -0.642292

-------------------------------
LOEWDIN REDUCED ORBITAL CHARGES
-------------------------------
  0 C s       :     2.731205  s :     2.731205
      pz      :     0.851972  p :     2.835990
      px      :     1.095687
      py      :     0.888331
      dz2     :     0.122461  d :     0.350665
      dxz     :     0.103496
      dyz     :     0.052147
      dx2y2   :     0.037145
      dxy     :     0.035417
  1 N s       :     3.108740  s :     3.108740
      pz      :     1.293797  p :     3.907669
      px      :     1.438750
      py      :     1.175122
      dz2     :     0.018657  d :     0.064968
      dxz     :     0.018995
      dyz     :     0.009250
      dx2y2   :     0.010479
      dxy     :     0.007586
  2 C s       :     2.774323  s :     2.774323
      pz      :     1.041658  p :     2.976668
      px      :     1.094383
      py      :     0.840627
      dz2     :     0.063392  d :     0.193681
      dxz     :     0.073641
      dyz     :     0.030443
      dx2y2   :     0.015334
      dxy     :     0.010871
  3 C s       :     2.772524  s :     2.772524
      pz      :     1.079199  p :     3.132000
      px      :     1.096978
      py      :     0.955824
      dz2     :     0.035232  d :     0.129482
      dxz     :     0.047153
      dyz     :     0.008786
      dx2y2   :     0.022443
      dxy     :     0.015868
  4 C s       :     2.769274  s :     2.769274
      pz      :     1.075129  p :     3.022827
      px      :     1.104746
      py      :     0.842952
      dz2     :     0.043063  d :     0.134811
      dxz     :     0.040093
      dyz     :     0.023118
      dx2y2   :     0.016096
      dxy     :     0.012441
  5 C s       :     2.753249  s :     2.753249
      pz      :     1.087753  p :     3.129435
      px      :     0.960487
      py      :     1.081195
      dz2     :     0.039322  d :     0.181975
      dxz     :     0.074741
      dyz     :     0.019926
      dx2y2   :     0.030769
      dxy     :     0.017216
  6 N s       :     2.997911  s :     2.997911
      pz      :     1.220053  p :     3.530631
      px      :     1.230258
      py      :     1.080320
      dz2     :     0.079757  d :     0.268720
      dxz     :     0.092973
      dyz     :     0.045546
      dx2y2   :     0.026053
      dxy     :     0.024391
  7 O s       :     3.574503  s :     3.574503
      pz      :     1.273741  p :     4.613959
      px      :     1.849088
      py      :     1.491130
      dz2     :     0.020558  d :     0.031625
      dxz     :     0.004734
      dyz     :     0.006169
      dx2y2   :     0.000108
      dxy     :     0.000056
  8 O s       :     3.548721  s :     3.548721
      pz      :     1.682876  p :     4.610420
      px      :     1.479746
      py      :     1.447798
      dz2     :     0.003607  d :     0.035271
      dxz     :     0.014959
      dyz     :     0.002761
      dx2y2   :     0.008441
      dxy     :     0.005503
  9 F s       :     3.713774  s :     3.713774
      pz      :     1.540587  p :     5.367821
      px      :     1.936841
      py      :     1.890393
      dz2     :     0.004670  d :     0.007254
      dxz     :     0.001179
      dyz     :     0.001353
      dx2y2   :     0.000041
      dxy     :     0.000011
 10 H s       :     0.848942  s :     0.848942
      pz      :     0.014642  p :     0.068660
      px      :     0.042503
      py      :     0.011515
 11 H s       :     0.842059  s :     0.842059
      pz      :     0.047436  p :     0.072163
      px      :     0.011319
      py      :     0.013409
 12 H s       :     0.827102  s :     0.827102
      pz      :     0.021141  p :     0.073417
      px      :     0.040696
      py      :     0.011580
 13 C s       :     2.858441  s :     2.858441
      pz      :     1.121687  p :     3.393362
      px      :     1.141752
      py      :     1.129923
      dz2     :     0.029781  d :     0.106915
      dxz     :     0.017097
      dyz     :     0.009098
      dx2y2   :     0.031424
      dxy     :     0.019516
 14 H s       :     0.926984  s :     0.926984
      pz      :     0.015727  p :     0.071769
      px      :     0.014593
      py      :     0.041449
 15 H s       :     0.927238  s :     0.927238
      pz      :     0.043282  p :     0.071777
      px      :     0.014569
      py      :     0.013925
 16 H s       :     0.927008  s :     0.927008
      pz      :     0.018358  p :     0.071776
      px      :     0.036328
      py      :     0.017090
 17 S s       :     5.612304  s :     5.612304
      pz      :     3.859583  p :    10.992785
      px      :     3.445004
      py      :     3.688198
      dz2     :     0.005041  d :     0.037203
      dxz     :     0.006845
      dyz     :     0.003538
      dx2y2   :     0.006127
      dxy     :     0.015652


                      *****************************
                      * MAYER POPULATION ANALYSIS *
                      *****************************

  NA   - Mulliken gross atomic population
  ZA   - Total nuclear charge
  QA   - Mulliken gross atomic charge
  VA   - Mayer's total valence
  BVA  - Mayer's bonded valence
  FA   - Mayer's free valence

  ATOM       NA         ZA         QA         VA         BVA        FA
  0 C      6.0208     6.0000    -0.0208     4.2748     4.2748     0.0000
  1 N      7.1853     7.0000    -0.1853     2.7172     2.7172    -0.0000
  2 C      6.2607     6.0000    -0.2607     4.0469     4.0469     0.0000
  3 C      6.3541     6.0000    -0.3541     4.5605     4.5605     0.0000
  4 C      5.4748     6.0000     0.5252     4.0049     4.0049     0.0000
  5 C      6.1806     6.0000    -0.1806     3.3724     3.3724     0.0000
  6 N      7.0102     7.0000    -0.0102     4.0209     4.0209    -0.0000
  7 O      8.1630     8.0000    -0.1630     2.1075     2.1075    -0.0000
  8 O      8.1184     8.0000    -0.1184     2.1943     2.1943    -0.0000
  9 F      9.1189     9.0000    -0.1189     0.9264     0.9264     0.0000
 10 H      0.7180     1.0000     0.2820     0.8836     0.8836     0.0000
 11 H      0.7194     1.0000     0.2806     0.9060     0.9060     0.0000
 12 H      0.6770     1.0000     0.3230     0.8355     0.8355    -0.0000
 13 C      6.4162     6.0000    -0.4162     3.5735     3.5735     0.0000
 14 H      0.8720     1.0000     0.1280     0.9427     0.9427     0.0000
 15 H      0.8706     1.0000     0.1294     0.9341     0.9341    -0.0000
 16 H      0.8722     1.0000     0.1278     0.9422     0.9422     0.0000
 17 S     16.9678    16.0000    -0.9678     0.6017     0.6017     0.0000

  Mayer bond orders larger than 0.100000
B(  0-C ,  1-N ) :   1.2743 B(  0-C ,  2-C ) :   0.1614 B(  0-C ,  3-C ) :   0.1836 
B(  0-C ,  4-C ) :   0.2386 B(  0-C ,  5-C ) :   1.2426 B(  0-C ,  6-N ) :  -0.1863 
B(  0-C ,  7-O ) :   0.1066 B(  0-C ,  8-O ) :  -0.1085 B(  0-C ,  9-F ) :   1.3915 
B(  1-N ,  2-C ) :   1.1625 B(  1-N ,  5-C ) :   0.2085 B(  2-C ,  3-C ) :   1.6963 
B(  2-C ,  5-C ) :   0.1124 B(  2-C , 10-H ) :   0.8747 B(  3-C ,  4-C ) :   1.4202 
B(  3-C ,  5-C ) :   0.1450 B(  3-C ,  8-O ) :   0.1617 B(  3-C , 11-H ) :   0.8369 
B(  4-C ,  5-C ) :   1.5277 B(  4-C ,  8-O ) :   0.2430 B(  4-C ,  9-F ) :  -0.1374 
B(  4-C , 12-H ) :   0.7189 B(  5-C ,  6-N ) :   0.6745 B(  5-C ,  7-O ) :  -0.1203 
B(  5-C ,  8-O ) :  -0.2095 B(  5-C ,  9-F ) :  -0.3666 B(  5-C , 12-H ) :   0.1464 
B(  6-N ,  7-O ) :   1.8221 B(  6-N ,  8-O ) :   1.8428 B(  7-O ,  8-O ) :   0.2474 
B( 13-C , 14-H ) :   0.9824 B( 13-C , 15-H ) :   0.9783 B( 13-C , 16-H ) :   0.9830 
B( 13-C , 17-S ) :   0.6310 

-------
TIMINGS
-------

Total SCF time: 0 days 0 hours 0 min 14 sec 

Total time                  ....      14.919 sec
Sum of individual times     ....      14.320 sec  ( 96.0%)

Fock matrix formation       ....      12.076 sec  ( 80.9%)
  Split-RI-J                ....       0.786 sec  (  6.5% of F)
  Chain of spheres X        ....       9.188 sec  ( 76.1% of F)
  XC integration            ....       1.186 sec  (  9.8% of F)
    Basis function eval.    ....       0.109 sec  (  9.2% of XC)
    Density eval.           ....       0.207 sec  ( 17.5% of XC)
    XC-Functional eval.     ....       0.069 sec  (  5.8% of XC)
    XC-Potential eval.      ....       0.082 sec  (  6.9% of XC)
Diagonalization             ....       0.027 sec  (  0.2%)
Density matrix formation    ....       0.009 sec  (  0.1%)
Population analysis         ....       0.068 sec  (  0.5%)
Initial guess               ....       0.041 sec  (  0.3%)
Orbital Transformation      ....       0.000 sec  (  0.0%)
Orbital Orthonormalization  ....       0.020 sec  (  0.1%)
DIIS solution               ....       0.011 sec  (  0.1%)
SOSCF solution              ....       0.092 sec  (  0.6%)
Grid generation             ....       1.995 sec  ( 13.4%)

Maximum memory used throughout the entire SCF-calculation: 68.3 MB

-------------------------   --------------------
FINAL SINGLE POINT ENERGY      -990.265441562258
-------------------------   --------------------

                                *** OPTIMIZATION RUN DONE ***

                            ***************************************
                            *     ORCA property calculations      *
                            ***************************************

                                    ---------------------
                                    Active property flags
                                    ---------------------
   (+) Dipole Moment


------------------------------------------------------------------------------
                       ORCA ELECTRIC PROPERTIES CALCULATION
------------------------------------------------------------------------------

Dipole Moment Calculation                       ... on
Quadrupole Moment Calculation                   ... off
Polarizability Calculation                      ... off
GBWName                                         ... structure_opt.gbw
Electron density                                ... structure_opt.scfp
The origin for moment calculation is the CENTER OF MASS  = ( 1.507295, -1.819791  4.495673)

-------------
DIPOLE MOMENT
-------------
                                X             Y             Z
Electronic contribution:    -22.83587      14.66470      -6.31303
Nuclear contribution   :     15.94462      -9.55256       9.83952
                        -----------------------------------------
Total Dipole Moment    :     -6.89125       5.11214       3.52650
                        -----------------------------------------
Magnitude (a.u.)       :      9.27683
Magnitude (Debye)      :     23.57982



--------------------
Rotational spectrum 
--------------------
 
Rotational constants in cm-1:     0.053668     0.006451     0.005954 
Rotational constants in MHz :  1608.922884   193.387578   178.502931 

 Dipole components along the rotational axes: 
x,y,z [a.u.] :    -8.430380    -3.855375     0.352518 
x,y,z [Debye]:   -21.428323    -9.799583     0.896031 

 

Timings for individual modules:

Sum of individual times         ...     1411.286 sec (=  23.521 min)
GTO integral calculation        ...       82.381 sec (=   1.373 min)   5.8 %
SCF iterations                  ...     1085.101 sec (=  18.085 min)  76.9 %
SCF Gradient evaluation         ...      241.705 sec (=   4.028 min)  17.1 %
Geometry relaxation             ...        2.098 sec (=   0.035 min)   0.1 %
                             ****ORCA TERMINATED NORMALLY****
TOTAL RUN TIME: 0 days 0 hours 24 minutes 56 seconds 323 msec
