
                                 *****************
                                 * O   R   C   A *
                                 *****************

                                            #,                                       
                                            ###                                      
                                            ####                                     
                                            #####                                    
                                            ######                                   
                                           ########,                                 
                                     ,,################,,,,,                         
                               ,,#################################,,                 
                          ,,##########################################,,             
                       ,#########################################, ''#####,          
                    ,#############################################,,   '####,        
                  ,##################################################,,,,####,       
                ,###########''''           ''''###############################       
              ,#####''   ,,,,##########,,,,          '''####'''          '####       
            ,##' ,,,,###########################,,,                        '##       
           ' ,,###''''                  '''############,,,                           
         ,,##''                                '''############,,,,        ,,,,,,###''
      ,#''                                            '''#######################'''  
     '                                                          ''''####''''         
             ,#######,   #######,   ,#######,      ##                                
            ,#'     '#,  ##    ##  ,#'     '#,    #''#        ######   ,####,        
            ##       ##  ##   ,#'  ##            #'  '#       #        #'  '#        
            ##       ##  #######   ##           ,######,      #####,   #    #        
            '#,     ,#'  ##    ##  '#,     ,#' ,#      #,         ##   #,  ,#        
             '#######'   ##     ##  '#######'  #'      '#     #####' # '####'        



                  #######################################################
                  #                        -***-                        #
                  #          Department of theory and spectroscopy      #
                  #    Directorship and core code : Frank Neese         #
                  #        Max Planck Institute fuer Kohlenforschung    #
                  #                Kaiser Wilhelm Platz 1               #
                  #                 D-45470 Muelheim/Ruhr               #
                  #                      Germany                        #
                  #                                                     #
                  #                  All rights reserved                #
                  #                        -***-                        #
                  #######################################################


                         Program Version 5.0.1 -  RELEASE  -


 With contributions from (in alphabetic order):
   Daniel Aravena         : Magnetic Suceptibility
   Michael Atanasov       : Ab Initio Ligand Field Theory (pilot matlab implementation)
   Alexander A. Auer      : GIAO ZORA, VPT2 properties, NMR spectrum
   Ute Becker             : Parallelization
   Giovanni Bistoni       : ED, misc. LED, open-shell LED, HFLD
   Martin Brehm           : Molecular dynamics
   Dmytro Bykov           : SCF Hessian
   Vijay G. Chilkuri      : MRCI spin determinant printing, contributions to CSF-ICE
   Dipayan Datta          : RHF DLPNO-CCSD density
   Achintya Kumar Dutta   : EOM-CC, STEOM-CC
   Dmitry Ganyushin       : Spin-Orbit,Spin-Spin,Magnetic field MRCI
   Miquel Garcia          : C-PCM and meta-GGA Hessian, CC/C-PCM, Gaussian charge scheme
   Yang Guo               : DLPNO-NEVPT2, F12-NEVPT2, CIM, IAO-localization
   Andreas Hansen         : Spin unrestricted coupled pair/coupled cluster methods
   Benjamin Helmich-Paris : MC-RPA, TRAH-SCF, COSX integrals
   Lee Huntington         : MR-EOM, pCC
   Robert Izsak           : Overlap fitted RIJCOSX, COSX-SCS-MP3, EOM
   Marcus Kettner         : VPT2
   Christian Kollmar      : KDIIS, OOCD, Brueckner-CCSD(T), CCSD density, CASPT2, CASPT2-K
   Simone Kossmann        : Meta GGA functionals, TD-DFT gradient, OOMP2, MP2 Hessian
   Martin Krupicka        : Initial AUTO-CI
   Lucas Lang             : DCDCAS
   Marvin Lechner         : AUTO-CI (C++ implementation), FIC-MRCC
   Dagmar Lenk            : GEPOL surface, SMD
   Dimitrios Liakos       : Extrapolation schemes; Compound Job, initial MDCI parallelization
   Dimitrios Manganas     : Further ROCIS development; embedding schemes
   Dimitrios Pantazis     : SARC Basis sets
   Anastasios Papadopoulos: AUTO-CI, single reference methods and gradients
   Taras Petrenko         : DFT Hessian,TD-DFT gradient, ASA, ECA, R-Raman, ABS, FL, XAS/XES, NRVS
   Peter Pinski           : DLPNO-MP2, DLPNO-MP2 Gradient
   Christoph Reimann      : Effective Core Potentials
   Marius Retegan         : Local ZFS, SOC
   Christoph Riplinger    : Optimizer, TS searches, QM/MM, DLPNO-CCSD(T), (RO)-DLPNO pert. Triples
   Tobias Risthaus        : Range-separated hybrids, TD-DFT gradient, RPA, STAB
   Michael Roemelt        : Original ROCIS implementation
   Masaaki Saitow         : Open-shell DLPNO-CCSD energy and density
   Barbara Sandhoefer     : DKH picture change effects
   Avijit Sen             : IP-ROCIS
   Kantharuban Sivalingam : CASSCF convergence, NEVPT2, FIC-MRCI
   Bernardo de Souza      : ESD, SOC TD-DFT
   Georgi Stoychev        : AutoAux, RI-MP2 NMR, DLPNO-MP2 response
   Willem Van den Heuvel  : Paramagnetic NMR
   Boris Wezisla          : Elementary symmetry handling
   Frank Wennmohs         : Technical directorship


 We gratefully acknowledge several colleagues who have allowed us to
 interface, adapt or use parts of their codes:
   Stefan Grimme, W. Hujo, H. Kruse, P. Pracht,  : VdW corrections, initial TS optimization,
                  C. Bannwarth, S. Ehlert          DFT functionals, gCP, sTDA/sTD-DF
   Ed Valeev, F. Pavosevic, A. Kumar             : LibInt (2-el integral package), F12 methods
   Garnet Chan, S. Sharma, J. Yang, R. Olivares  : DMRG
   Ulf Ekstrom                                   : XCFun DFT Library
   Mihaly Kallay                                 : mrcc  (arbitrary order and MRCC methods)
   Jiri Pittner, Ondrej Demel                    : Mk-CCSD
   Frank Weinhold                                : gennbo (NPA and NBO analysis)
   Christopher J. Cramer and Donald G. Truhlar   : smd solvation model
   Lars Goerigk                                  : TD-DFT with DH, B97 family of functionals
   V. Asgeirsson, H. Jonsson                     : NEB implementation
   FAccTs GmbH                                   : IRC, NEB, NEB-TS, DLPNO-Multilevel, CI-OPT
                                                   MM, QMMM, 2- and 3-layer-ONIOM, Crystal-QMMM,
                                                   LR-CPCM, SF, NACMEs, symmetry and pop. for TD-DFT,
                                                   nearIR, NL-DFT gradient (VV10), updates on ESD,
                                                   ML-optimized integration grids
   S Lehtola, MJT Oliveira, MAL Marques          : LibXC Library
   Liviu Ungur et al                             : ANISO software


 Your calculation uses the libint2 library for the computation of 2-el integrals
 For citations please refer to: http://libint.valeyev.net

 Your ORCA version has been built with support for libXC version: 5.1.0
 For citations please refer to: https://tddft.org/programs/libxc/

 This ORCA versions uses:
   CBLAS   interface :  Fast vector & matrix operations
   LAPACKE interface :  Fast linear algebra routines
   SCALAPACK package :  Parallel linear algebra routines
   Shared memory     :  Shared parallel matrices
   BLAS/LAPACK       :  OpenBLAS 0.3.15  USE64BITINT DYNAMIC_ARCH NO_AFFINITY SkylakeX SINGLE_THREADED
        Core in use  :  SkylakeX
   Copyright (c) 2011-2014, The OpenBLAS Project




***************************************
The coordinates will be read from file: structure_opt.xyz
***************************************


Your calculation utilizes the atom-pairwise dispersion correction
based on tight binding partial charges (D4)
Cite in your paper:
E.Caldeweyher, C.Bannwarth, S.Grimme, J.Chem.Phys., (2017), 147, 034112.
E.Caldeweyher, S.Ehlert, A.Hansen, H.Neugebauer, S.Grimme, J.Chem.Phys., (2018), in progress.
   

Your calculation utilizes the SMD solvation module
Please cite in your paper:
A.V. Marenich, C.J. Cramer, D.G. Truhlar J. Phys. Chem. B, 113, (2009), 6378 

XCFun DFT library Copyright 2009-2010 Ulf Ekstrom and contributors.
See http://admol.org/xcfun for more information.
This is free software; see the source code for copying conditions.
There is ABSOLUTELY NO WARRANTY; not even for MERCHANTABILITY or FITNESS FOR A PARTICULAR PURPOSE.
For details see the documentation.
Scientific users of this library should cite U. Ekstrom, L. Visscher, R. Bast, A. J. Thorvaldsen and K. Ruud;
J.Chem.Theor.Comp. 2010, DOI: 10.1021/ct100117s
XCFun Version 0.99 

Your calculation utilizes a Nudged-Elastic-Band implementation
 by V.Asgeirsson, C. Riplinger & H. Jonsson
Please cite in your paper:
 V. Asgeirsson et al., in prep. (2019)
   

================================================================================

----- Orbital basis set information -----
Your calculation utilizes the basis: 6-311++G**
   H, Li - Ne  : R. Krishnan, J. S. Binkley, R. Seeger and J. A. Pople, J. Chem. Phys. 72, 650 (1980).
   Na - Ar     : A. D. McLean and G. S. Chandler J. Chem. Phys. 72, 5639, (1980).
   K  - Ca     : J.-P. Blaudeau, M. P. McGrath, L. A. Curtiss and L. Radom, J. Chem. Phys. 107, 5016 (1997).
   Ga - Kr     : L. A. Curtiss, M. P. McGrath, J.-P. Blandeau, N. E. Davis, R. C. Binning and L. Radom, J. Chem. Phys. 103, 6104 (1995).
   Pol./Diff.
   H, Li - Cl  : T. Clark, J. Chandrasekhar and P. v. R. Schleyer, J. Comp. Chem. 4, 294 (1983).
   H - Ne      : M. J. Frisch, J. A. Pople and J. S. Binkley, J. Chem. Phys. 80, 3265 (1984).

----- AuxJ basis set information -----
Your calculation utilizes the auxiliary basis: def2/J
   F. Weigend, Phys. Chem. Chem. Phys. 8, 1057 (2006).

================================================================================
                                        WARNINGS
                       Please study these warnings very carefully!
================================================================================


WARNING: The environment variable RSH_COMMAND is not set!
  ===> : All Displacements for the Numerical Hessian calculation
         will be started on localhost

WARNING: Geometry Optimization
  ===> : Switching off AutoStart
         For restart on a previous wavefunction, please use MOREAD

INFO   : the flag for use of the SHARK integral package has been found!

================================================================================
                                       INPUT FILE
================================================================================
NAME = TS_search_opt_without_h.inp
|  1> !wb97x 6-311++G** D4 NEB-TS OPT NUMFREQ CPCM(WATER)
|  2> %maxcore  3500
|  3> %pal
|  4> nprocs 24
|  5> end
|  6> %cpcm
|  7> smd true
|  8> SMDsolvent "water"
|  9> end
| 10> %geom
| 11> MaxIter 1000   # allows for n optimization cycles
| 12> EnforceStrictConvergence False
| 13> end
| 14> %NEB NEB_END_XYZFILE "2f3_prod_opt.xyz" END
| 15> * XYZfile -1 1 structure_opt.xyz
| 16> 
| 17>                          ****END OF INPUT****
================================================================================


------------------------------------------------------------------------------- 
                         Nudged Elastic Band Calculation                       
------------------------------------------------------------------------------- 

Number of images (incl. end points)     ....  10
Number of intermediate images           ....  8
Number of optimized images              ....  8
Optimization of end points before NEB   ....  NO
Use existing gbw files for MO input     ....  NO
Number of atoms                         ....  18
Number of (active) degrees of freedom   ....  54
Constrained atoms                       ....  None

-----------------------------------------
  REACTANT (ANGSTROEM)
-----------------------------------------
C      0.039410    -0.039648     1.868044 
N      1.152104    -0.207271     2.515776 
C      1.200904    -0.181350     3.847322 
C      0.080007     0.021659     4.621475 
C     -1.115767     0.202414     3.957472 
C     -1.165905     0.175568     2.572027 
N     -2.418257     0.365961     1.886084 
O     -2.480955     0.346028     0.639818 
O     -3.402546     0.545036     2.576156 
F      0.063595    -0.076239     0.518759 
H      2.179550    -0.325962     4.291442 
H      0.132491     0.038674     5.702103 
H     -2.033573     0.366928     4.507112 
C      6.727299    -4.898139     2.701176 
H      6.587539    -5.940170     2.400193 
H      6.813990    -4.850518     3.790231 
H      7.650635    -4.520608     2.253079 
S      5.327478    -3.904362     2.150731 

-----------------------------------------
  PRODUCT (ANGSTROEM)
-----------------------------------------
C     -0.006655     0.014080     1.789576 
N      1.150760    -0.163122     2.425247 
C      1.177726    -0.139964     3.759145 
C      0.054738     0.057580     4.546999 
C     -1.158972     0.233636     3.911162 
C     -1.178720     0.217442     2.525234 
N     -2.493686     0.427964     1.904940 
O     -2.584738     1.164910     0.947848 
O     -3.439094    -0.145340     2.414303 
F      3.139899     2.499865     0.919104 
H      2.152169    -0.281946     4.215772 
H      0.130494     0.071637     5.627108 
H     -2.077395     0.389730     4.465403 
C      0.049505     1.625975    -0.482258 
H     -0.875798     2.113075    -0.187252 
H      0.131238     1.624494    -1.570971 
H      0.921382     2.132605    -0.060262 
S      0.064147    -0.119619     0.009902 



----------------------
NEB settings
----------------------
Method type                             ....  climbing image
Threshold for climbing image            ....  2.00e-02 Eh/Bohr 
Free endpoints                          ....  off 
Tangent type                            ....  improved 
Number of intermediate images           ....  8 
Number of images free to move           ....  8 
Spring type for image distribution      ....  distance between adjacent images 
Spring constant                         ....  energy weighted (0.0100 -to- 0.1000) Eh/Bohr^2 
Spring force perp. to the path          ....  none 
Generation of initial path              ....  image dependent pair potential 
Initial path via TS guess               ....  off 

Minimization of RMSD: Rotation          ....  always 
Minimization of RMSD: Translation type  ....  centroid 
Center fixed to origin                  ....  true 
Remove external force                   ....  true 

Reparametrization of the path           ....  off 
Convergence thresholds:
Convergence monitored for               ....  all images
Scaling factor                          ....  10.00

Convergence parameters for regular images:
               Max(|Fp|)                ....  2.00e-02 Eh/Bohr
               RMS(Fp)                  ....  1.00e-02 Eh/Bohr

Convergence parameters for climbing image:
               Max(|F|)                 ....  2.00e-03 Eh/Bohr
               RMS(F)                   ....  1.00e-03 Eh/Bohr
Optimization method:
Method                                  ....  L-BFGS
Max. iterations                         ....  500 
Step size                               ....  1.00 
Maximum allowed step size               ....  0.10 Bohr

LBFGS parameters: 
               Memory                   ....  20 
               Initial step size        ....  0.0010 
               Estimate curvature       ....  YES 
               Reset on maxmove         ....  YES 
               Reparam. on reset        ....  NO 
Generation of  the initial path:
Minimize RMSD between reactant and product configurations     .... done
       RMSD before minimization         ....  5.7445 Bohr
       RMSD after minimization          ....  3.5990 Bohr
Performing linear interpolation         ....  done
Interpolation using                     ....  IDPP (Image Dependent Pair Potential)
IDPP-Settings:
       Remove global transl. and rot.   ...   true
       Convergence tolerance            ....  0.0100 1/Ang.^3
       Max. numer of iterations         ....    7000
       Spring constant                  ....  1.0000 1/Ang.^4
       Time step                        ....  0.0100 fs
       Max. movement per iteration      ....  0.0500 Ang.
       Full print                       ....  false 
idpp initial path generation successfully converged in 157 iterations
Displacement along initial path:             28.2148 Bohr
Writing initial trajectory to file      ....  TS_search_opt_without_h_initial_path_trj.xyz



----------------------
NEB OPTIMIZATION      
----------------------

Following output files will be written:
Energy profile during opt. written to    ....  TS_search_opt_without_h.interp
Optimization log-file                    ....  TS_search_opt_without_h.NEB.log
Current trajectory will be written to    ....  TS_search_opt_without_h_MEP_trj.xyz
       and to allxyz file                ....  TS_search_opt_without_h_MEP.allxyz
       and individual images to xyz file ....  TS_search_opt_without_h_im{NIm}.xyz
Trajectory history will be written to    ....  TS_search_opt_without_h_MEP_ALL_trj.xyz
Converged CI will be written to          ....  TS_search_opt_without_h_NEB-CI_converged.xyz
Converged TS will be written to          ....  TS_search_opt_without_h_NEB-TS_converged.xyz

Single point energy and gradient calculation of reactant and
product configurations (have to be performed only once)
Properties of fixed NEB end points:
               Reactant:
                         E               ....   -990.267919 Eh
                         RMS(F)          ....      0.010114 Eh/Bohr
                         MAX(|F|)        ....      0.037165 Eh/Bohr
      Warning: Reactant seems to be less converged than convergence tolerances.
               You might want to use free end NEB or preopt_ends true.
               Product:
                         E               ....   -990.305489 Eh
                         RMS(F)          ....      0.001272 Eh/Bohr
                         MAX(|F|)        ....      0.004139 Eh/Bohr



Starting iterations:

Optim.  Iteration  HEI  E(HEI)-E(0)  max(|Fp|)   RMS(Fp)    dS
Switch-on CI threshold               0.020000 
   LBFGS     0      4    0.185008    0.106936   0.018192  28.2148       
   LBFGS     1      4    0.164418    0.074100   0.009600  28.1921       
   LBFGS     2      4    0.165111    0.094744   0.013083  28.1740       
   LBFGS     3      4    0.163281    0.070185   0.010120  28.1630       
   LBFGS     4      4    0.165585    0.081986   0.012470  28.1584       
   LBFGS     5      4    0.161877    0.114280   0.012777  28.1581       
   LBFGS     6      4    0.157434    0.081854   0.011635  28.1591       
   LBFGS     7      4    0.155645    0.071698   0.011336  28.1708       
   LBFGS     8      4    0.155128    0.059377   0.008331  28.1737       
   LBFGS     9      4    0.155659    0.061530   0.010190  28.1854       
   LBFGS    10      4    0.157895    0.076513   0.011758  28.2141       
   LBFGS    11      4    0.160694    0.132225   0.013912  28.2314       
   LBFGS    12      4    0.150591    0.037349   0.007226  28.2373       
   LBFGS    13      4    0.152876    0.062470   0.007893  28.2757       
   LBFGS    14      4    0.161934    0.147922   0.013002  28.2973       
   LBFGS    15      4    0.151690    0.059761   0.008074  28.3052       
   LBFGS    16      4    0.150713    0.063067   0.008787  28.3499       
   LBFGS    17      4    0.151478    0.051529   0.008671  28.3627       
   LBFGS    18      4    0.149336    0.036048   0.006328  28.3730       
   LBFGS    19      4    0.152303    0.069767   0.007614  28.4241       
   LBFGS    20      4    0.154281    0.094404   0.008314  28.4406       
   LBFGS    21      4    0.149876    0.040605   0.005442  28.4506       
   LBFGS    22      4    0.152385    0.056521   0.008440  28.5235       
   LBFGS    23      4    0.152109    0.069239   0.006937  28.5425       
   LBFGS    24      4    0.148769    0.021895   0.004473  28.5556       
   LBFGS    25      4    0.154132    0.088967   0.008560  28.6239       
   LBFGS    26      4    0.163965    0.138564   0.011146  28.7503       
   LBFGS    27      4    0.148715    0.017870   0.003497  28.7544       

Image  4 will be converted to a climbing image in the next iteration (max(|Fp|) < 0.0200) 

Optim.  Iteration  CI   E(CI)-E(0)   max(|Fp|)   RMS(Fp)    dS     max(|FCI|)   RMS(FCI)
Convergence thresholds               0.020000   0.010000            0.002000    0.001000 
   LBFGS    28      4    0.148432    0.014852   0.003099  28.7589    0.010025    0.002565       
   LBFGS    29      4    0.152258    0.035320   0.005830  28.8737    0.059545    0.015507       
   LBFGS    30      4    0.153411    0.040986   0.006750  29.0242    0.056776    0.016390       
   LBFGS    31      4    0.150385    0.017121   0.003256  29.0484    0.058286    0.014577       
   LBFGS    32      4    0.147938    0.013519   0.002859  29.0719    0.010977    0.003204       
   LBFGS    33      4    0.148349    0.015269   0.003211  29.1245    0.017861    0.005694       
   LBFGS    34      4    0.151728    0.023985   0.004389  29.2906    0.055397    0.013965       
   LBFGS    35      4    0.154744    0.029431   0.005016  29.5404    0.068925    0.017729       
   LBFGS    36      4    0.149529    0.019818   0.002705  29.5408    0.057102    0.014140       
   LBFGS    37      4    0.146942    0.009780   0.001978  29.5436    0.008682    0.002665       
   LBFGS    38      4    0.147033    0.010814   0.002335  29.5611    0.015929    0.004693       
   LBFGS    39      4    0.148325    0.015237   0.002871  29.6089    0.037356    0.010006       
   LBFGS    40      4    0.150146    0.027539   0.003841  29.7538    0.055190    0.014459       
   LBFGS    41      4    0.147290    0.016867   0.002465  29.7739    0.037192    0.010167       
   LBFGS    42      4    0.145997    0.010996   0.001933  29.7885    0.015002    0.004321       
   LBFGS    43      4    0.145877    0.008194   0.001945  29.8459    0.009983    0.003326       
   LBFGS    44      4    0.146309    0.008228   0.001973  29.9037    0.024797    0.006796       
   LBFGS    45      4    0.146171    0.022110   0.002563  30.0397    0.030671    0.008496       
   LBFGS    46      4    0.145347    0.015021   0.001998  30.0261    0.030551    0.008004       
   LBFGS    47      4    0.144555    0.010418   0.001659  30.0191    0.013640    0.003879       
   LBFGS    48      4    0.144389    0.010489   0.001838  30.0091    0.011126    0.003265       
   LBFGS    49      4    0.144495    0.009205   0.001743  30.0271    0.025033    0.006410       
   LBFGS    50      4    0.144105    0.009192   0.001769  30.1012    0.038320    0.009012       
   LBFGS    51      4    0.144254    0.007736   0.001540  30.1342    0.042475    0.011555       
   LBFGS    52      4    0.142872    0.007518   0.001376  30.1492    0.018396    0.005227       
   LBFGS    53      4    0.142340    0.007466   0.001381  30.2041    0.008317    0.002478       
   LBFGS    54      4    0.142121    0.007434   0.001318  30.2315    0.015141    0.003866       
   LBFGS    55      4    0.141370    0.012985   0.001784  30.3117    0.025019    0.006202       
   LBFGS    56      4    0.141312    0.011376   0.001578  30.3048    0.025121    0.007056       
   LBFGS    57      4    0.140803    0.008836   0.001401  30.3007    0.014219    0.004357       
   LBFGS    58      4    0.139981    0.009704   0.001520  30.2972    0.009403    0.002288       
   LBFGS    59      4    0.139730    0.012112   0.001618  30.3263    0.021151    0.005015       
   LBFGS    60      4    0.139252    0.016252   0.001967  30.4179    0.037154    0.008696       

Possible intermediate minimum found at image(s): 1 
  => have a look at the .interp file.
  => it is often a good idea to divide the path calculation into smaller fragments. 

   LBFGS    61      4    0.139080    0.011149   0.001536  30.4418    0.034556    0.009685       
   LBFGS    62      4    0.138013    0.008179   0.001442  30.4522    0.015625    0.004389       
   LBFGS    63      4    0.137524    0.006814   0.001313  30.5003    0.011502    0.003147       
   LBFGS    64      4    0.137266    0.006798   0.001369  30.5409    0.016876    0.004273       
   LBFGS    65      4    0.136454    0.012781   0.001682  30.6792    0.025768    0.006712       
   LBFGS    66      4    0.136953    0.009643   0.001429  30.6817    0.036333    0.010099       
   LBFGS    67      4    0.135817    0.006631   0.001266  30.6829    0.016639    0.005041       
   LBFGS    68      4    0.135174    0.008599   0.001453  30.7038    0.010834    0.002954       
   LBFGS    69      4    0.135023    0.008427   0.001425  30.7393    0.017246    0.004265       
   LBFGS    70      4    0.134367    0.006927   0.001425  30.9056    0.030459    0.007304       
   LBFGS    71      4    0.134127    0.006418   0.001364  30.9259    0.027849    0.007795       
   LBFGS    72      4    0.133432    0.006319   0.001257  30.9358    0.015115    0.004244       
   LBFGS    73      4    0.132927    0.007256   0.001290  31.0032    0.012692    0.003677       
   LBFGS    74      4    0.132617    0.006245   0.001281  31.0678    0.019311    0.004975       
   LBFGS    75      4    0.131708    0.012838   0.001739  31.2512    0.024971    0.006879       
   LBFGS    76      4    0.131827    0.014205   0.001674  31.2624    0.033442    0.009036       
   LBFGS    77      4    0.130763    0.007842   0.001268  31.2687    0.015286    0.004348       
   LBFGS    78      4    0.130094    0.006125   0.001224  31.3068    0.008761    0.002309       
   LBFGS    79      4    0.129827    0.006049   0.001190  31.3469    0.013998    0.003465       
   LBFGS    80      4    0.128703    0.005868   0.001399  31.5522    0.024964    0.006444       
   LBFGS    81      4    0.128395    0.008865   0.001372  31.5628    0.026521    0.007093       
   LBFGS    82      4    0.127715    0.005302   0.001132  31.5686    0.013353    0.003671       
   LBFGS    83      4    0.127168    0.006579   0.001138  31.6063    0.009480    0.003091       
   LBFGS    84      4    0.126687    0.007563   0.001180  31.6530    0.013560    0.003745       
   LBFGS    85      4    0.125383    0.015826   0.001765  31.8252    0.020475    0.005548       
   LBFGS    86      4    0.125262    0.015445   0.001799  31.8401    0.026696    0.006926       
   LBFGS    87      4    0.124546    0.007957   0.001232  31.8501    0.014312    0.003711       
   LBFGS    88      4    0.123849    0.004806   0.001054  31.8940    0.006380    0.001961       
   LBFGS    89      4    0.123449    0.004742   0.001109  31.9314    0.010885    0.002729       
   LBFGS    90      4    0.121711    0.014308   0.001868  32.1183    0.020400    0.004877       
   LBFGS    91      4    0.121427    0.017249   0.001890  32.1199    0.018323    0.005057       

Possible intermediate minimum found at image(s): 1 
  => have a look at the .interp file.
  => it is often a good idea to divide the path calculation into smaller fragments. 

   LBFGS    92      4    0.121035    0.009027   0.001334  32.1225    0.012387    0.003388       
   LBFGS    93      4    0.120249    0.005909   0.001027  32.1536    0.005064    0.001700       
   LBFGS    94      4    0.119761    0.010179   0.001361  32.1918    0.004897    0.001802       
   LBFGS    95      4    0.118150    0.019027   0.002135  32.3534    0.010189    0.003609       
   LBFGS    96      4    0.117853    0.017202   0.001936  32.3610    0.009799    0.003028       
   LBFGS    97      4    0.117642    0.010979   0.001454  32.3677    0.007023    0.002546       
   LBFGS    98      4    0.116895    0.005737   0.001119  32.4125    0.008804    0.002493       
   LBFGS    99      4    0.116400    0.018642   0.002049  32.4552    0.008666    0.003363       
   LBFGS   100      4    0.115632    0.025206   0.002565  32.5122    0.010501    0.003430       
   LBFGS   101      4    0.114142    0.031156   0.003145  32.6356    0.010376    0.003706       
   LBFGS   102      4    0.113755    0.017654   0.002064  32.6332    0.010134    0.002434       
   LBFGS   103      4    0.113547    0.013634   0.001648  32.6343    0.008024    0.002069       
   LBFGS   104      4    0.112853    0.013073   0.001540  32.6610    0.007800    0.002532       
   LBFGS   105      4    0.112557    0.020914   0.002319  32.6965    0.011831    0.003471       
   LBFGS   106      4    0.112199    0.015557   0.001879  32.7126    0.008277    0.002746       
   LBFGS   107      4    0.110950    0.007544   0.001435  32.7994    0.006188    0.002045       
   LBFGS   108      4    0.110748    0.016714   0.002078  32.7931    0.014361    0.003510       
   LBFGS   109      4    0.110375    0.008817   0.001446  32.7918    0.009290    0.002688       
   LBFGS   110      4    0.109734    0.008730   0.001618  32.8079    0.007651    0.002206       
   LBFGS   111      4    0.109121    0.018339   0.002628  32.8510    0.009112    0.002666       
   LBFGS   112      4    0.108296    0.026979   0.003365  32.9191    0.011771    0.003489       
   LBFGS   113      4    0.107811    0.021485   0.002528  32.9158    0.010235    0.002637       
   LBFGS   114      4    0.107493    0.017736   0.002079  32.9143    0.007539    0.002205       
   LBFGS   115      4    0.106721    0.013543   0.001891  32.9163    0.007107    0.002695       
   LBFGS   116      4    0.106510    0.029266   0.003575  32.9446    0.014124    0.003788       
   LBFGS   117      4    0.106160    0.011336   0.001857  32.9372    0.006849    0.002300       
   LBFGS   118      4    0.105468    0.011356   0.001604  32.9432    0.004411    0.001766       
   LBFGS   119      4    0.104447    0.024802   0.002877  32.9762    0.007130    0.002659       
   LBFGS   120      4    0.104224    0.006607   0.001590  32.9691    0.003737    0.001570       
   LBFGS   121      4    0.104112    0.006663   0.001454  32.9633    0.003446    0.001519       
   LBFGS   122      4    0.102879    0.009421   0.001678  32.9291    0.007666    0.001853       

Possible intermediate minimum found at image(s): 1 
  => have a look at the .interp file.
  => it is often a good idea to divide the path calculation into smaller fragments. 

   LBFGS   123      4    0.102274    0.013012   0.002668  32.9556    0.005878    0.002439       
   LBFGS   124      4    0.101772    0.011767   0.001853  32.9764    0.005202    0.001902       
   LBFGS   125      4    0.101313    0.011457   0.001896  32.9979    0.004841    0.002076       
   LBFGS   126      4    0.100004    0.016632   0.002681  33.0656    0.006005    0.002693       
   LBFGS   127      4    0.099428    0.017141   0.003025  33.0498    0.005680    0.002261       
   LBFGS   128      4    0.099046    0.011364   0.002093  33.0389    0.004682    0.002117       
   LBFGS   129      4    0.098115    0.007154   0.001680  33.0282    0.007023    0.002088       
   LBFGS   130      4    0.097262    0.022980   0.002895  33.0345    0.008254    0.002392       
   LBFGS   131      4    0.095776    0.027019   0.003572  33.0540    0.009578    0.002827       
   LBFGS   132      4    0.093338    0.033385   0.004260  33.1067    0.011298    0.003142       
   LBFGS   133      4    0.092835    0.018281   0.002897  33.1046    0.009258    0.002683       
   LBFGS   134      4    0.092444    0.014728   0.002428  33.1069    0.007549    0.002487       
   LBFGS   135      4    0.090623    0.010515   0.001895  33.1644    0.005869    0.002448       
   LBFGS   136      4    0.090164    0.014252   0.002272  33.1742    0.005994    0.002530       
   LBFGS   137      4    0.089721    0.013564   0.002071  33.1835    0.005949    0.002485       
   LBFGS   138      4    0.085201    0.023288   0.002959  33.3259    0.011811    0.003426       
   LBFGS   139      4    0.084187    0.016447   0.002649  33.3504    0.011191    0.003061       
   LBFGS   140      4    0.083409    0.013398   0.001924  33.3707    0.006740    0.002767       
   LBFGS   141      4    0.081566    0.019860   0.002436  33.4394    0.007011    0.003043       
   LBFGS   142      4    0.077471    0.027628   0.003990  33.6393    0.009195    0.004314       
   LBFGS   143      4    0.076180    0.026774   0.003563  33.6315    0.008311    0.003679       
   LBFGS   144      4    0.075324    0.017895   0.002469  33.6294    0.008206    0.003364       
   LBFGS   145      4    0.072269    0.012851   0.002291  33.6693    0.007782    0.003470       
   LBFGS   146      4    0.069759    0.014203   0.003024  33.7485    0.010947    0.004022       
   LBFGS   147      4    0.063400    0.022376   0.004406  33.9993    0.018828    0.005359       
   LBFGS   148      4    0.060873    0.038395   0.005511  34.0275    0.013811    0.004364       
   LBFGS   149      4    0.059502    0.019622   0.003115  34.0416    0.009384    0.003784       
   LBFGS   150      4    0.056833    0.011558   0.002167  34.1226    0.009372    0.003641       
   LBFGS   151      4    0.054602    0.015515   0.003201  34.2261    0.009404    0.004256       
   LBFGS   152      4    0.050197    0.029631   0.004759  34.4800    0.016116    0.005577       
   LBFGS   153      4    0.047754    0.034410   0.005117  34.4800    0.008940    0.004571       

Possible intermediate minimum found at image(s): 1 
  => have a look at the .interp file.
  => it is often a good idea to divide the path calculation into smaller fragments. 

   LBFGS   154      4    0.046240    0.022934   0.003658  34.4810    0.009204    0.003943       
   LBFGS   155      4    0.041900    0.013958   0.002770  34.6144    0.013411    0.004459       
   LBFGS   156      4    0.038436    0.043837   0.006032  34.7452    0.009709    0.003726       
   LBFGS   157      4    0.036829    0.016564   0.002629  34.8333    0.009618    0.003717       
   LBFGS   158      4    0.034331    0.023381   0.003996  35.0920    0.013089    0.005017       
   LBFGS   159      4    0.032102    0.043487   0.006907  35.4978    0.025222    0.007064       
   LBFGS   160      5    0.031945    0.017737   0.003837  35.5211    0.057534    0.020784       
   LBFGS   161      5    0.026441    0.017845   0.003014  35.5774    0.036125    0.013594       
   LBFGS   162      5    0.022727    0.014523   0.002445  35.7303    0.020970    0.007958       
   LBFGS   163      5    0.027307    0.013615   0.002979  35.8857    0.044942    0.017853       
   LBFGS   164      5    0.021307    0.014818   0.002271  36.0037    0.019574    0.007953       
   LBFGS   165      5    0.019621    0.014779   0.002473  36.2455    0.011370    0.005311       
   LBFGS   166      5    0.023347    0.038137   0.004841  36.4131    0.038617    0.016366       
   LBFGS   167      5    0.018783    0.018445   0.002702  36.5069    0.016707    0.006713       
   LBFGS   168      5    0.018097    0.025072   0.004084  36.9263    0.021276    0.008643       
   LBFGS   169      5    0.017802    0.032870   0.003939  37.0104    0.018719    0.008708       
   LBFGS   170      5    0.016909    0.017432   0.002542  37.0828    0.015207    0.006208       
   LBFGS   171      5    0.015527    0.023474   0.003185  37.4796    0.008770    0.003643       
   LBFGS   172      5    0.015704    0.038912   0.004943  37.6671    0.017170    0.006844       
   LBFGS   173      5    0.014566    0.021103   0.002917  37.8244    0.006959    0.003095       
   LBFGS   174      5    0.013821    0.029634   0.004721  38.2381    0.018144    0.005241       
   LBFGS   175      5    0.012792    0.039180   0.005893  38.7868    0.025709    0.007425       
   LBFGS   176      5    0.011814    0.032278   0.004017  38.8467    0.010676    0.004657       
   LBFGS   177      5    0.011444    0.021368   0.002891  38.9175    0.009043    0.004163       
   LBFGS   178      5    0.009606    0.017648   0.002665  39.4115    0.008127    0.003393       
   LBFGS   179      5    0.009773    0.020954   0.003921  39.6211    0.018941    0.007613       
   LBFGS   180      5    0.008145    0.015216   0.002272  39.7965    0.006196    0.002774       
   LBFGS   181      5    0.007716    0.020209   0.003893  40.1324    0.017099    0.006462       
   LBFGS   182      5    0.007666    0.035904   0.006285  40.7385    0.030836    0.011594       
   LBFGS   183      5    0.005320    0.025903   0.003747  40.7935    0.015577    0.006387       
   LBFGS   184      5    0.006007    0.027800   0.004752  40.8879    0.024409    0.009797       

Possible intermediate minimum found at image(s): 1 
  => have a look at the .interp file.
  => it is often a good idea to divide the path calculation into smaller fragments. 

   LBFGS   185      3    0.004249    0.012770   0.002228  41.0665    0.006939    0.002350       
   LBFGS   186      3    0.003932    0.032812   0.006805  41.5636    0.017006    0.005292       
   LBFGS   187      3    0.003139    0.022106   0.004278  41.6641    0.010260    0.003443       
   LBFGS   188      3    0.002906    0.019004   0.003805  41.7350    0.008038    0.002881       
   LBFGS   189      3    0.002906    0.019005   0.003805  41.7350    0.008038    0.002881       
   LBFGS   190      4    0.003039    0.019554   0.003915  41.8445    0.015219    0.004115       
   LBFGS   191      4    0.006578    0.026152   0.004977  41.9716    0.012983    0.003728       
   LBFGS   192      4    0.010008    0.029750   0.005573  42.1644    0.007339    0.003394       
   LBFGS   193      4    0.009922    0.027186   0.005512  42.2713    0.006908    0.002764       
   LBFGS   194      4    0.010055    0.039614   0.007271  42.4500    0.009432    0.003005       
   LBFGS   195      4    0.009979    0.021083   0.003495  42.5033    0.003965    0.001890       
   LBFGS   196      4    0.010050    0.025945   0.004882  42.5891    0.004972    0.002223       
   LBFGS   197      4    0.010115    0.030973   0.005770  42.8362    0.004922    0.002303       
   LBFGS   198      4    0.010048    0.021936   0.003707  42.9206    0.003845    0.001725       
   LBFGS   199      4    0.010018    0.016701   0.003193  42.9982    0.003967    0.001603       
   LBFGS   200      4    0.009887    0.014873   0.002482  43.3147    0.003068    0.001344       
   LBFGS   201      4    0.009814    0.042791   0.006456  43.5884    0.005613    0.002273       
   LBFGS   202      4    0.009681    0.056148   0.008448  43.9559    0.007033    0.002901       
   LBFGS   203      4    0.009451    0.027441   0.003819  44.0499    0.003205    0.001450       
   LBFGS   204      4    0.009232    0.014551   0.002473  44.3217    0.003062    0.001264       
   LBFGS   205      4    0.008950    0.039328   0.005505  44.7795    0.005297    0.001969       
   LBFGS   206      4    0.008607    0.039328   0.006225  45.2706    0.006186    0.002234       
   LBFGS   207      4    0.008487    0.017598   0.002508  45.2816    0.003733    0.001198       
   LBFGS   208      4    0.008453    0.017737   0.002869  45.3109    0.003677    0.001322       
   LBFGS   209      4    0.008288    0.020812   0.003044  45.4345    0.003408    0.001290       
   LBFGS   210      4    0.008212    0.053202   0.006038  45.4644    0.004627    0.001694       
   LBFGS   211      4    0.008157    0.020077   0.002814  45.4848    0.003147    0.001261       
   LBFGS   212      4    0.007999    0.014931   0.001826  45.5770    0.003009    0.001012       
   LBFGS   213      4    0.007811    0.029947   0.003265  45.7195    0.002780    0.001041       
   LBFGS   214      4    0.007720    0.055512   0.006115  45.8049    0.002566    0.001147       
   LBFGS   215      4    0.007688    0.008791   0.001788  45.8219    0.002576    0.000966       

Possible intermediate minimum found at image(s): 1 
  => have a look at the .interp file.
  => it is often a good idea to divide the path calculation into smaller fragments. 

   LBFGS   216      4    0.007628    0.013446   0.001658  45.8720    0.002545    0.000935       
   LBFGS   217      4    0.007448    0.039571   0.004910  46.0348    0.002406    0.001037       
   LBFGS   218      4    0.007401    0.018035   0.002420  46.0181    0.002348    0.000918       
   LBFGS   219      4    0.007364    0.019633   0.002449  46.0170    0.002330    0.000922       
   LBFGS   220      4    0.007191    0.017498   0.002513  46.0093    0.002319    0.000909       
   LBFGS   221      4    0.007107    0.037213   0.004485  46.0610    0.002241    0.000994       
   LBFGS   222      4    0.007012    0.036912   0.004225  46.1142    0.002189    0.000988       
   LBFGS   223      4    0.006872    0.010883   0.001289  46.1635    0.002167    0.000834       
   LBFGS   224      4    0.006719    0.030102   0.003434  46.2383    0.002137    0.000880       
   LBFGS   225      4    0.006677    0.022437   0.002519  46.2101    0.002141    0.000830       
   LBFGS   226      4    0.006623    0.027680   0.003030  46.1857    0.002142    0.000862       
   LBFGS   227      4    0.006480    0.027840   0.002929  46.1799    0.002119    0.000803       
   LBFGS   228      4    0.006406    0.059762   0.005978  46.2406    0.002067    0.000841       
   LBFGS   229      4    0.006319    0.063182   0.006397  46.3199    0.002020    0.000866       
   LBFGS   230      4    0.006267    0.007091   0.001428  46.3236    0.002016    0.000763       
   LBFGS   231      4    0.006200    0.029507   0.003066  46.3596    0.002010    0.000770       
   LBFGS   232      4    0.006069    0.052051   0.005566  46.4133    0.002000    0.000833       
   LBFGS   233      4    0.006037    0.017410   0.002117  46.4001    0.001984    0.000742       

                                .--------------------.
          ----------------------| CI-NEB convergence |-------------------------
          Item                value                   Tolerance       Converged
          ---------------------------------------------------------------------
          RMS(Fp)             0.0021174903            0.0100000000      YES
          MAX(|Fp|)           0.0174097985            0.0200000000      YES
          RMS(FCI)            0.0007424299            0.0010000000      YES
          MAX(|FCI|)          0.0019844781            0.0020000000      YES
          ---------------------------------------------------------------------

The elastic band and climbing image have converged successfully to a MEP in 233 iterations!


                    *********************H U R R A Y*********************
                    ***        THE NEB OPTIMIZATION HAS CONVERGED     ***
                    *****************************************************



---------------------------------------------------------------
                         PATH SUMMARY              
---------------------------------------------------------------
All forces in Eh/Bohr.

Image Dist.(Ang.)    E(Eh)   dE(kcal/mol)  max(|Fp|)  RMS(Fp)
  0     0.000    -990.26792      0.00       0.03719   0.01011
  1     4.791    -990.27385     -3.72       0.00106   0.00031
  2     8.956    -990.27358     -3.55       0.00448   0.00111
  3    10.817    -990.26756      0.23       0.00222   0.00097
  4    11.121    -990.26188      3.79       0.00199   0.00074 <= CI
  5    11.451    -990.27180     -2.44       0.01741   0.00551
  6    12.508    -990.27051     -1.62       0.00338   0.00138
  7    15.024    -990.30075    -20.60       0.00582   0.00141
  8    19.060    -990.28758    -12.34       0.00537   0.00195
  9    24.554    -990.30549    -23.58       0.00398   0.00126

Straight line distance between images along the path:
        D( 0- 1) =   4.7913 Ang.
        D( 1- 2) =   4.1643 Ang.
        D( 2- 3) =   1.8613 Ang.
        D( 3- 4) =   0.3045 Ang.
        D( 4- 5) =   0.3300 Ang.
        D( 5- 6) =   1.0570 Ang.
        D( 6- 7) =   2.5159 Ang.
        D( 7- 8) =   4.0354 Ang.
        D( 8- 9) =   5.4942 Ang.

---------------------------------------------------------------
               INFORMATION ABOUT SADDLE POINT     
---------------------------------------------------------------

Climbing image                            ....  4 
Energy                                    ....  -990.26188200 Eh
Max. abs. force                           ....  1.9845e-03 Eh/Bohr

-----------------------------------------
  SADDLE POINT (ANGSTROEM)
-----------------------------------------
C      0.275537     0.567514    -0.311466 
N      0.875811     1.388565     0.563803 
C      0.179937     1.858757     1.583121 
C     -1.198815     1.686948     1.749377 
C     -1.863212     0.962594     0.786837 
C     -1.140909     0.394090    -0.262352 
N     -1.846605    -0.389477    -1.220088 
O     -1.220706    -0.999275    -2.077398 
O     -3.076169    -0.441137    -1.151732 
F      0.863465     0.586808    -1.537608 
H      0.736765     2.453698     2.302529 
H     -1.722165     2.159088     2.571060 
H     -2.939845     0.843364     0.811419 
C      2.496476    -2.250067    -0.853411 
H      2.037738    -2.737432    -1.718095 
H      3.107315    -2.999307    -0.339601 
H      3.181064    -1.478081    -1.220093 
S      1.254315    -1.606652     0.323700 

-----------------------------------------
  FORCES (Eh/Bohr)
-----------------------------------------
C      0.000230     0.000730    -0.000304 
N      0.000187     0.000476    -0.000821 
C      0.000276     0.000623    -0.000200 
C      0.000262    -0.000668    -0.000362 
C      0.000740    -0.000311     0.000441 
C      0.000188     0.000188    -0.000424 
N      0.000603    -0.000150    -0.000646 
O      0.000643     0.000526    -0.000436 
O      0.000627    -0.000539    -0.000228 
F      0.000792    -0.001016     0.000221 
H      0.000104     0.000877    -0.000866 
H      0.000496    -0.000900     0.000393 
H      0.000424    -0.001378     0.000596 
C     -0.001149     0.000327     0.000456 
H     -0.000957     0.000949     0.000028 
H     -0.000377     0.000314    -0.000527 
H     -0.001984     0.001354     0.001132 
S     -0.001444    -0.001560     0.001032 

-----------------------------------------
  UNIT TANGENT
-----------------------------------------
C      0.226041    -0.530102     0.143466 
N      0.111550    -0.171378     0.103824 
C      0.063118    -0.073461    -0.043915 
C      0.011400    -0.058874     0.002207 
C      0.042041    -0.045451    -0.011576 
C      0.061557    -0.162534     0.022562 
N      0.055766    -0.024610     0.054231 
O      0.010039    -0.030464    -0.024873 
O      0.009812     0.000667     0.001267 
F      0.031894     0.047388    -0.038184 
H      0.005197     0.049268    -0.076204 
H      0.015549    -0.013303    -0.023725 
H      0.033369     0.021177    -0.046590 
C     -0.131364     0.184843    -0.022284 
H     -0.071422     0.075158     0.013508 
H     -0.257186     0.193635     0.173339 
H     -0.002917     0.058094    -0.021343 
S     -0.214445     0.479947    -0.205710 
 => Unit tangent is an approximation to the TS mode at the saddle point

Next a TS optimization is performed on the CI from the NEB run.

         *************************************************************
         *                       TS OPTIMIZATION                     *
         *************************************************************


Following output files will be written:
Converged TS will be written to          ....  TS_search_opt_without_h_NEB-TS_converged.xyz
                                         ....  TS_search_opt_without_h.xyz
Current trajectory will be written to    ....  TS_search_opt_without_h_trj.xyz
Initial Hessian will be stored in        ....  TS_search_opt_without_h.appr.hess
Geometry optimization settings:
Update method            Update   .... Bofill
Choice of coordinates    CoordSys .... Z-matrix Internals
Initial Hessian          InHess   .... Read

Convergence Tolerances:
Energy Change            TolE     ....  5.0000e-06 Eh
Max. Gradient            TolMAXG  ....  3.0000e-04 Eh/bohr
RMS Gradient             TolRMSG  ....  1.0000e-04 Eh/bohr
Max. Displacement        TolMAXD  ....  4.0000e-03 bohr
RMS Displacement         TolRMSD  ....  2.0000e-03 bohr
Strict Convergence                ....  False
------------------------------------------------------------------------------
                        ORCA OPTIMIZATION COORDINATE SETUP
------------------------------------------------------------------------------

The optimization will be done in new redundant internal coordinates
Making redundant internal coordinates   ...  (new redundants) done
Following TS mode number                ...     0
TS-active-atoms for coordinate setup... 0 15 17 
Evaluating the initial hessian          ... (Reading Exact Hessian)...  
InHessName: TS_search_opt_without_h.appr.hess	The file <TS_search_opt_without_h.appr.hess> is opened as a .hess file
done
done
Diagonalizing the Hessian               .... done
Dimension of the hessian                .... 155
Lowest eigenvalues of the non projected Hessian:
 -0.011328014 -0.000000000 -0.000000000 -0.000000000 -0.000000000
done
Evaluating the coordinates              ...  done
Calculating the B-matrix                .... done
Calculating the G-matrix                .... done
Diagonalizing the G-matrix              .... done
The first mode is                       ....  107
The number of degrees of freedom        ....   48

    -----------------------------------------------------------------
                    Redundant Internal Coordinates


    -----------------------------------------------------------------
         Definition                    Initial Value    d2E/dq (diagonal element)
    -----------------------------------------------------------------
      1. B(N   1,C   0)                  1.3418         0.208047   
      2. B(C   2,C   0)                  2.2948         0.122015   
      3. B(C   2,N   1)                  1.3207         0.328076   
      4. B(C   3,C   2)                  1.3993         0.442501   
      5. B(C   3,C   0)                  2.7702         0.100853   
      6. B(C   4,C   0)                  2.4365         0.107342   
      7. B(C   4,C   3)                  1.3757         0.498282   
      8. B(C   5,C   4)                  1.3949         0.288291   
      9. B(C   5,C   0)                  1.4279         0.140819   
     10. B(N   6,C   0)                  2.4990         0.095287   
     11. B(N   6,C   5)                  1.4245         0.265217   
     12. B(O   7,C   0)                  2.7950         0.061669   
     13. B(O   7,N   6)                  1.2242         0.859441   
     14. B(O   8,N   6)                  1.2325         0.894504   
     15. B(F   9,C   0)                  1.3599         0.325522   
     16. B(H  10,C   2)                  1.0870         0.364416   
     17. B(H  11,C   3)                  1.0826         0.370183   
     18. B(H  12,C   4)                  1.0835         0.369056   
     19. B(H  14,C  13)                  1.0935         0.287497   
     20. B(H  15,C  13)                  1.0948         0.291901   
     21. B(H  16,F   9)                  3.1202         0.028916   
     22. B(H  16,C  13)                  1.0950         0.258336   
     23. B(S  17,H  16)                  2.4723         0.062778   
     24. B(S  17,H  15)                  2.4110         0.081791   
     25. B(S  17,H  14)                  2.4620         0.066449   
     26. B(S  17,F   9)                  2.9032         0.054496   
     27. B(S  17,C   5)                  3.1755         0.055284   
     28. B(S  17,N   1)                  3.0286         0.058929   
     29. B(S  17,C   0)                  2.4675         0.000378   
     30. B(S  17,C  13)                  1.8283         0.137487   
     31. A(N   1,C   0,F   9)          112.7078         0.012283   
     32. A(F   9,C   0,S  17)           94.1921         0.007859   
     33. A(C   5,C   0,S  17)          106.1185         0.009936   
     34. A(N   1,C   0,S  17)          101.1739         0.009679   
     35. A(C   5,C   0,F   9)          117.4901         0.012754   
     36. A(N   1,C   0,C   5)          119.7127         0.021740   
     37. A(C   0,N   1,S  17)           53.0622         0.004660   
     38. A(C   2,N   1,S  17)          118.6282         0.019025   
     39. A(C   0,N   1,C   2)          119.0490         0.029863   
     40. A(C   3,C   2,H  10)          119.5576         0.193545   
     41. A(N   1,C   2,C   3)          124.5500         0.060415   
     42. A(N   1,C   2,H  10)          115.8323         0.193845   
     43. A(C   2,C   3,C   4)          117.2171         0.065700   
     44. A(C   4,C   3,H  11)          121.8173         0.193575   
     45. A(C   2,C   3,H  11)          120.8607         0.192950   
     46. A(C   3,C   4,C   5)          119.3917         0.057100   
     47. A(C   5,C   4,H  12)          119.1277         0.192094   
     48. A(C   3,C   4,H  12)          121.4635         0.192583   
     49. A(C   0,C   5,N   6)          122.3516         0.045656   
     50. A(C   0,C   5,C   4)          119.3439         0.029113   
     51. A(C   4,C   5,S  17)          120.5681         0.020633   
     52. A(N   6,C   5,S  17)           98.6954         0.035745   
     53. A(C   0,C   5,S  17)           48.2881         0.004129   
     54. A(C   4,C   5,N   6)          118.2525         0.067757   
     55. A(C   5,N   6,O   8)          118.6830         0.247749   
     56. A(O   7,N   6,O   8)          121.8711         0.254410   
     57. A(C   5,N   6,O   7)          119.4430         0.082386   
     58. A(C   0,F   9,S  17)           57.9565         0.004898   
     59. A(H  16,C  13,S  17)          113.0947         0.083216   
     60. A(H  15,C  13,S  17)          108.5283         0.089498   
     61. A(H  14,C  13,S  17)          112.3931         0.093775   
     62. A(H  15,C  13,H  16)          106.9073         0.067812   
     63. A(H  14,C  13,H  15)          107.4689         0.072767   
     64. A(H  14,C  13,H  16)          108.1619         0.083926   
     65. A(C   0,S  17,C  13)          114.4480         0.016653   
     66. A(C   5,S  17,F   9)           45.9003         0.011671   
     67. A(N   1,S  17,F   9)           44.5031         0.012081   
     68. A(C   0,S  17,F   9)           27.8513         0.011068   
     69. A(F   9,S  17,C  13)           86.8230         0.014310   
     70. A(N   1,S  17,C   5)           45.3508         0.007541   
     71. A(C   0,S  17,C   5)           25.5934         0.004469   
     72. A(C   5,S  17,C  13)          127.9806         0.016246   
     73. A(C   0,S  17,N   1)           25.7639         0.006449   
     74. A(N   1,S  17,C  13)          118.9475         0.015679   
     75. D(S  17,N   1,C   0,C   5)    116.0119         0.010526   
     76. D(C   2,N   1,C   0,C   5)     10.4610         0.010726   
     77. D(S  17,N   1,C   0,F   9)    -99.4064         0.009291   
     78. D(C   2,N   1,C   0,S  17)   -105.5509         0.012089   
     79. D(C   2,N   1,C   0,F   9)    155.0427         0.012598   
     80. D(H  10,C   2,N   1,C   0)    175.2870         0.013149   
     81. D(C   3,C   2,N   1,S  17)    -68.8716         0.011456   
     82. D(H  10,C   2,N   1,S  17)    113.9712         0.014292   
     83. D(C   3,C   2,N   1,C   0)     -7.5558         0.013439   
     84. D(H  11,C   3,C   2,N   1)   -175.5171         0.011325   
     85. D(H  11,C   3,C   2,H  10)      1.5412         0.013614   
     86. D(C   4,C   3,C   2,H  10)    177.8839         0.012314   
     87. D(C   4,C   3,C   2,N   1)      0.8255         0.011401   
     88. D(C   5,C   4,C   3,H  11)    178.9397         0.011025   
     89. D(C   5,C   4,C   3,C   2)      2.6345         0.008909   
     90. D(H  12,C   4,C   3,C   2)   -175.8478         0.009322   
     91. D(H  12,C   4,C   3,H  11)      0.4574         0.012362   
     92. D(N   6,C   5,C   4,C   3)    177.8698         0.010863   
     93. D(N   6,C   5,C   0,S  17)    -71.0420         0.009698   
     94. D(S  17,C   5,C   0,F   9)    103.6594         0.008039   
     95. D(S  17,C   5,C   0,N   1)   -113.4015         0.009634   
     96. D(C   0,C   5,C   4,C   3)      0.4316         0.009346   
     97. D(N   6,C   5,C   4,H  12)     -3.6123         0.010925   
     98. D(N   6,C   5,C   0,F   9)     32.6174         0.009572   
     99. D(N   6,C   5,C   0,N   1)    175.5564         0.010400   
    100. D(C   4,C   5,C   0,S  17)    106.2867         0.010169   
    101. D(S  17,C   5,C   4,H  12)   -124.7253         0.010409   
    102. D(S  17,C   5,C   4,C   3)     56.7567         0.009429   
    103. D(C   4,C   5,C   0,F   9)   -150.0539         0.010554   
    104. D(C   4,C   5,C   0,N   1)     -7.1149         0.009112   
    105. D(C   0,C   5,C   4,H  12)    178.9495         0.008969   
    106. D(O   8,N   6,C   5,S  17)    137.8821         0.009346   
    107. D(O   8,N   6,C   5,C   4)      6.1047         0.010506   
    108. D(O   8,N   6,C   5,C   0)   -176.5388         0.009353   
    109. D(O   7,N   6,C   5,S  17)    -41.5148         0.009232   
    110. D(O   7,N   6,C   5,C   4)   -173.2923         0.010618   
    111. D(O   7,N   6,C   5,C   0)      4.0643         0.009480   
    112. D(S  17,F   9,C   0,C   5)   -110.6061         0.011019   
    113. D(S  17,F   9,C   0,N   1)    103.9637         0.011360   
    114. D(N   1,S  17,C   5,C   4)    -73.8852         0.024219   
    115. D(N   1,S  17,C   5,C   0)     29.7626         0.009432   
    116. D(C   0,S  17,C   5,N   6)    126.0750         0.018739   
    117. D(C  13,S  17,C   5,N   6)     60.5650         0.016722   
    118. D(C  13,S  17,C   5,C   4)   -169.1578         0.016821   
    119. D(C  13,S  17,C   5,C   0)    -65.5100         0.008295   
    120. D(F   9,S  17,N   1,C   0)     37.4589         0.013255   
    121. D(C   5,S  17,N   1,C   2)     76.8007         0.025495   
    122. D(C   5,S  17,N   1,C   0)    -29.5607         0.009122   
    123. D(C   0,S  17,N   1,C   2)    106.3614         0.025009   
    124. D(C  13,S  17,N   1,C   2)   -166.9586         0.021132   
    125. D(C  13,S  17,N   1,C   0)     86.6800         0.011265   
    126. D(F   9,S  17,C   0,C   5)    120.1956         0.012376   
    127. D(F   9,S  17,C   0,N   1)   -114.1436         0.013236   
    128. D(F   9,S  17,N   1,C   2)    143.8203         0.033929   
    129. D(C   5,S  17,C   0,F   9)   -120.1956         0.012376   
    130. D(C   5,S  17,C   0,N   1)    125.6608         0.016570   
    131. D(N   1,S  17,C   0,F   9)    114.1436         0.013236   
    132. D(C   0,S  17,C   5,C   4)   -103.6478         0.020563   
    133. D(N   1,S  17,C   0,C   5)   -125.6608         0.016570   
    134. D(C  13,S  17,C   0,F   9)      7.8096         0.005673   
    135. D(C  13,S  17,C   0,C   5)    128.0052         0.006420   
    136. D(N   1,S  17,C   5,N   6)    155.8376         0.023831   
    137. D(F   9,S  17,C  13,H  16)     45.7021         0.012210   
    138. D(F   9,S  17,C  13,H  15)    164.1501         0.012344   
    139. D(C  13,S  17,C   0,N   1)   -106.3340         0.008556   
    140. D(C   5,S  17,C  13,H  16)     67.6411         0.012858   
    141. D(C   5,S  17,C  13,H  15)   -173.9110         0.014401   
    142. D(C   5,S  17,C  13,H  14)    -55.1923         0.013923   
    143. D(N   1,S  17,C  13,H  15)    132.0365         0.015557   
    144. D(N   1,S  17,C  13,H  14)   -109.2449         0.014823   
    145. D(C   0,S  17,C  13,H  16)     42.0569         0.011904   
    146. D(C   0,S  17,C  13,H  15)    160.5048         0.012042   
    147. D(C   0,S  17,C  13,H  14)    -80.7765         0.011414   
    148. D(N   1,S  17,C  13,H  16)     13.5885         0.017152   
    149. D(C   5,S  17,F   9,C   0)     31.3266         0.009844   
    150. D(N   1,S  17,F   9,C   0)    -34.4622         0.012512   
    151. D(C  13,S  17,F   9,C   0)   -172.8835         0.004850   
    152. D(F   9,S  17,C  13,H  14)    -77.1313         0.011591   
    153. D(F   9,S  17,C   5,N   6)     91.8615         0.020420   
    154. D(F   9,S  17,C   5,C   4)   -137.8613         0.026708   
    155. D(F   9,S  17,C   5,C   0)    -34.2135         0.010126   
    -----------------------------------------------------------------

Number of atoms                         .... 18
Number of degrees of freedom            .... 155

         *************************************************************
         *                GEOMETRY OPTIMIZATION CYCLE   1            *
         *************************************************************


           ************************************************************
           *        Program running with 24 parallel MPI-processes    *
           *              working on a common directory               *
           ************************************************************
------------------------------------------------------------------------------
                           ORCA GTO INTEGRAL CALCULATION
                           -- RI-GTO INTEGRALS CHOSEN --
------------------------------------------------------------------------------
------------------------------------------------------------------------------
                   ___                                                        
                  /   \      - P O W E R E D   B Y -                         
                 /     \                                                     
                 |  |  |   _    _      __       _____    __    __             
                 |  |  |  | |  | |    /  \     |  _  \  |  |  /  |          
                  \  \/   | |  | |   /    \    | | | |  |  | /  /          
                 / \  \   | |__| |  /  /\  \   | |_| |  |  |/  /          
                |  |  |   |  __  | /  /__\  \  |    /   |      \           
                |  |  |   | |  | | |   __   |  |    \   |  |\   \          
                \     /   | |  | | |  |  |  |  | |\  \  |  | \   \       
                 \___/    |_|  |_| |__|  |__|  |_| \__\ |__|  \__/        
                                                                              
                      - O R C A' S   B I G   F R I E N D -                    
                                      &                                       
                       - I N T E G R A L  F E E D E R -                       
                                                                              
 v1 FN, 2020, v2 2021                                                         
------------------------------------------------------------------------------


Reading SHARK input file TS_search_opt_without_h.SHARKINP.tmp ... ok
----------------------
SHARK INTEGRAL PACKAGE
----------------------

Number of atoms                             ...     18
Number of basis functions                   ...    314
Number of shells                            ...    154
Maximum angular momentum                    ...      2
Integral batch strategy                     ... SHARK/LIBINT Hybrid
RI-J (if used) integral strategy            ... SPLIT-RIJ (Revised 2003 algorithm where possible)
Printlevel                                  ...      1
Contraction scheme used                     ... SEGMENTED contraction
Coulomb Range Separation                    ... NOT USED
Exchange Range Separation                   ... Long Range
   Mu parameter                             ...  0.300000
   Scaling (regular/separated)              ...  0.157706  0.842294
Finite Nucleus Model                        ... NOT USED
Auxiliary Coulomb fitting basis             ... AVAILABLE
   # of basis functions in Aux-J            ...    656
   # of shells in Aux-J                     ...    212
   Maximum angular momentum in Aux-J        ...      4
Auxiliary J/K fitting basis                 ... NOT available
Auxiliary Correlation fitting basis         ... NOT available
Auxiliary 'external' fitting basis          ... NOT available
Integral threshold                          ...     2.500000e-11
Primitive cut-off                           ...     2.500000e-12
Primitive pair pre-selection threshold      ...     2.500000e-12

Calculating pre-screening integrals         ... done (  0.1 sec) Dimension = 154
Organizing shell pair data                  ... done (  0.1 sec)
Shell pair information
Total number of shell pairs                 ...     11935
Shell pairs after pre-screening             ...     10244
Total number of primitive shell pairs       ...     38500
Primitive shell pairs kept                  ...     23372
          la=0 lb=0:   3134 shell pairs
          la=1 lb=0:   4176 shell pairs
          la=1 lb=1:   1430 shell pairs
          la=2 lb=0:    846 shell pairs
          la=2 lb=1:    588 shell pairs
          la=2 lb=2:     70 shell pairs

Calculating one electron integrals          ... done (  0.0 sec)
Calculating RI/J V-Matrix + Cholesky decomp.... done (  0.1 sec)
Calculating Nuclear repulsion               ... done (  0.0 sec) ENN=    808.289523631346 Eh

SHARK setup successfully completed in   0.4 seconds

Maximum memory used throughout the entire GTOINT-calculation: 17.0 MB


           ************************************************************
           *        Program running with 24 parallel MPI-processes    *
           *              working on a common directory               *
           ************************************************************
-------------------------------------------------------------------------------
                                 ORCA SCF
-------------------------------------------------------------------------------

------------
SCF SETTINGS
------------
Hamiltonian:
 Density Functional     Method          .... DFT(GTOs)
 Exchange Functional    Exchange        .... WB97X
 Correlation Functional Correlation     .... WB97X
 Gradients option       PostSCFGGA      .... off
 Hybrid DFT is turned on
   Fraction HF Exchange ScalHFX         ....  0.157706
   Scaling of DF-GGA-X  ScalDFX         ....  0.000000
   Scaling of DF-GGA-C  ScalDFC         ....  1.000000
   Scaling of DF-LDA-C  ScalLDAC        ....  1.000000
   Perturbative correction              ....  0.000000
   Density functional embedding theory  .... OFF
 Long-range corrected/Screened/Range-Separated Hybrid DFT is turned on
   Amount of maximum screened exact exchange              ....  0.842294
   Range separation parameter mu (erf(mu*r12)/r12)        ....  0.300000
 RI-approximation to the Coulomb term is turned on
   Number of AuxJ basis functions       .... 656
   RIJ-COSX (HFX calculated with COS-X)).... on


General Settings:
 Integral files         IntName         .... TS_search_opt_without_h
 Hartree-Fock type      HFTyp           .... RHF
 Total Charge           Charge          ....   -1
 Multiplicity           Mult            ....    1
 Number of Electrons    NEL             ....   98
 Basis Dimension        Dim             ....  314
 Nuclear Repulsion      ENuc            ....    808.2895236313 Eh

Convergence Acceleration:
 DIIS                   CNVDIIS         .... on
   Start iteration      DIISMaxIt       ....    12
   Startup error        DIISStart       ....  0.200000
   # of expansion vecs  DIISMaxEq       ....     5
   Bias factor          DIISBfac        ....   1.050
   Max. coefficient     DIISMaxC        ....  10.000
 Trust-Rad. Augm. Hess. CNVTRAH         .... auto
   Auto Start mean grad. ratio tolernc. ....  1.125000
   Auto Start start iteration           ....     1
   Auto Start num. interpolation iter.  ....    10
   Max. Number of Micro iterations      ....    16
   Max. Number of Macro iterations      .... Maxiter - #DIIS iter
   Number of Davidson start vectors     ....     2
   Converg. threshold I  (grad. norm)   ....   1.000e-05
   Converg. threshold II (energy diff.) ....   1.000e-08
   Grad. Scal. Fac. for Micro threshold ....   0.100
   Minimum threshold for Micro iter.    ....   0.010
   NR start threshold (gradient norm)   ....   0.001
   Initial trust radius                 ....   0.400
   Minimum AH scaling param. (alpha)    ....   1.000
   Maximum AH scaling param. (alpha)    .... 1000.000
   Orbital update algorithm             .... Taylor
   White noise on init. David. guess    .... on
   Maximum white noise                  ....   0.010
   Quad. conv. algorithm                .... NR
 SOSCF                  CNVSOSCF        .... on
   Start iteration      SOSCFMaxIt      ....   150
   Startup grad/error   SOSCFStart      ....  0.003300
 Level Shifting         CNVShift        .... on
   Level shift para.    LevelShift      ....    0.2500
   Turn off err/grad.   ShiftErr        ....    0.0010
 Zerner damping         CNVZerner       .... off
 Static damping         CNVDamp         .... on
   Fraction old density DampFac         ....    0.7000
   Max. Damping (<1)    DampMax         ....    0.9800
   Min. Damping (>=0)   DampMin         ....    0.0000
   Turn off err/grad.   DampErr         ....    0.1000
 Fernandez-Rico         CNVRico         .... off

SCF Procedure:
 Maximum # iterations   MaxIter         ....   125
 SCF integral mode      SCFMode         .... Direct
   Integral package                     .... SHARK and LIBINT hybrid scheme
 Reset frequency        DirectResetFreq ....    20
 Integral Threshold     Thresh          ....  2.500e-11 Eh
 Primitive CutOff       TCut            ....  2.500e-12 Eh

Convergence Tolerance:
 Convergence Check Mode ConvCheckMode   .... Total+1el-Energy
 Convergence forced     ConvForced      .... 0
 Energy Change          TolE            ....  1.000e-08 Eh
 1-El. energy change                    ....  1.000e-05 Eh
 Orbital Gradient       TolG            ....  1.000e-05
 Orbital Rotation angle TolX            ....  1.000e-05
 DIIS Error             TolErr          ....  5.000e-07


Diagonalization of the overlap matrix:
Smallest eigenvalue                        ... 3.174e-06
Time for diagonalization                   ...    0.022 sec
Threshold for overlap eigenvalues          ... 1.000e-08
Number of eigenvalues below threshold      ... 0
Time for construction of square roots      ...    0.095 sec
Total time needed                          ...    0.118 sec

---------------------
INITIAL GUESS: MOREAD
---------------------
Guess MOs are being read from file: TS_search_opt_without_h.gbw
Input Geometry matches current geometry (good)
Input basis set matches current basis set (good)
MOs were renormalized
MOs were reorthogonalized (Cholesky)
                      ------------------
                      INITIAL GUESS DONE (   0.0 sec)
                      ------------------
-------------------
DFT GRID GENERATION
-------------------

General Integration Accuracy     IntAcc      ... 4.388
Radial Grid Type                 RadialGrid  ... OptM3 with GC (2021)
Angular Grid (max. ang.)         AngularGrid ... 4 (Lebedev-302)
Angular grid pruning method      GridPruning ... 4 (adaptive)
Weight generation scheme         WeightScheme... Becke
Basis function cutoff            BFCut       ... 1.0000e-11
Integration weight cutoff        WCut        ... 1.0000e-14
Angular grids for H and He will be reduced by one unit
Partially contracted basis set               ... off
Rotationally invariant grid construction     ... off

Total number of grid points                  ...    97731
Total number of batches                      ...     1536
Average number of points per batch           ...       63
Average number of grid points per atom       ...     5430
Time for grid setup =    0.836 sec

--------------------
COSX GRID GENERATION
--------------------

GRIDX 1
-------
General Integration Accuracy     IntAcc      ... 3.816
Radial Grid Type                 RadialGrid  ... OptM3 with GC (2021)
Angular Grid (max. ang.)         AngularGrid ... 1 (Lebedev-50)
Angular grid pruning method      GridPruning ... 4 (adaptive)
Weight generation scheme         WeightScheme... Becke
Basis function cutoff            BFCut       ... 1.0000e-11
Integration weight cutoff        WCut        ... 1.0000e-14
Angular grids for H and He will be reduced by one unit
Partially contracted basis set               ... on
Rotationally invariant grid construction     ... off

Total number of grid points                  ...    12200
Total number of batches                      ...      199
Average number of points per batch           ...       61
Average number of grid points per atom       ...      678
UseSFitting                                  ... on

GRIDX 2
-------
General Integration Accuracy     IntAcc      ... 4.020
Radial Grid Type                 RadialGrid  ... OptM3 with GC (2021)
Angular Grid (max. ang.)         AngularGrid ... 2 (Lebedev-110)
Angular grid pruning method      GridPruning ... 4 (adaptive)
Weight generation scheme         WeightScheme... Becke
Basis function cutoff            BFCut       ... 1.0000e-11
Integration weight cutoff        WCut        ... 1.0000e-14
Angular grids for H and He will be reduced by one unit
Partially contracted basis set               ... on
Rotationally invariant grid construction     ... off

Total number of grid points                  ...    30600
Total number of batches                      ...      486
Average number of points per batch           ...       62
Average number of grid points per atom       ...     1700
UseSFitting                                  ... on

GRIDX 3
-------
General Integration Accuracy     IntAcc      ... 4.338
Radial Grid Type                 RadialGrid  ... OptM3 with GC (2021)
Angular Grid (max. ang.)         AngularGrid ... 3 (Lebedev-194)
Angular grid pruning method      GridPruning ... 4 (adaptive)
Weight generation scheme         WeightScheme... Becke
Basis function cutoff            BFCut       ... 1.0000e-11
Integration weight cutoff        WCut        ... 1.0000e-14
Angular grids for H and He will be reduced by one unit
Partially contracted basis set               ... on
Rotationally invariant grid construction     ... off

Total number of grid points                  ...    67957
Total number of batches                      ...     1069
Average number of points per batch           ...       63
Average number of grid points per atom       ...     3775
UseSFitting                                  ... on

Time for X-Grid setup             =    1.232 sec


--------------------
CPCM SOLVATION MODEL
--------------------
CPCM parameters:
  Epsilon                                         ...      78.3550
  Refrac                                          ...       1.3328
  Rsolv                                           ...       1.3000
  Surface type                                    ... GAUSSIAN VDW
  Epsilon function type                           ...         CPCM
Solvent:                                     ... WATER
SMD-CDS solvent descriptors:
  Soln                                       ...    1.3328
  Soln25                                     ...    1.3323
  Sola                                       ...    0.0000
  Solb                                       ...    0.0000
  Solg                                       ...    0.0000
  Solc                                       ...    0.0000
  Solh                                       ...    0.0000
Radii:
 Radius for C  used is    3.4960 Bohr (=   1.8500 Ang.)
 Radius for N  used is    3.5716 Bohr (=   1.8900 Ang.)
 Radius for O  used is    2.8724 Bohr (=   1.5200 Ang.)
 Radius for F  used is    3.2692 Bohr (=   1.7300 Ang.)
 Radius for H  used is    2.2677 Bohr (=   1.2000 Ang.)
 Radius for S  used is    4.7054 Bohr (=   2.4900 Ang.)
Calculating surface                               ...        done! (  0.0s)
GEPOL surface points                              ...         1079
GEPOL Volume                                      ...    1281.5505
GEPOL Surface-area                                ...     716.6555
Calculating surface distance matrix               ...        done! (  0.0s)
Performing Cholesky decomposition & store         ...        done! (  0.1s)
Overall time for CPCM initialization              ...                 0.1s
--------------
SCF ITERATIONS
--------------
ITER       Energy         Delta-E        Max-DP      RMS-DP      [F,P]     Damp
               ***  Starting incremental Fock matrix formation  ***
                      *** Initiating the SOSCF procedure ***
                      *** Re-Reading the Fockian *** 
                      *** Removing any level shift *** 
ITER      Energy       Delta-E        Grad      Rot      Max-DP    RMS-DP
  0   -990.26710921 -990.2671092062  0.000000  0.000000  0.000011  0.000000
               *** Restarting incremental Fock matrix formation ***
                 **** Energy Check signals convergence ****
              ***Rediagonalizing the Fockian in SOSCF/NRSCF***

               *****************************************************
               *                     SUCCESS                       *
               *           SCF CONVERGED AFTER   1 CYCLES          *
               *****************************************************

Old exchange energy                            =    -28.483514348 Eh
New exchange energy                            =    -28.483516590 Eh
Exchange energy change after final integration =     -0.000002242 Eh
Total energy after final integration           =   -990.267111448 Eh
Final COS-X integration done in                =     4.139 sec

SMD CDS free energy correction energy :                 5.46440     Kcal/mol
Total Energy after SMD CDS correction =              -990.258403378 Eh

----------------
TOTAL SCF ENERGY
----------------

Total Energy       :         -990.25840338 Eh          -26946.30108 eV

Components:
Nuclear Repulsion  :          808.28952363 Eh           21994.67613 eV
Electronic Energy  :        -1798.54792701 Eh          -48940.97721 eV
One Electron Energy:        -2981.13475732 Eh          -81120.80085 eV
Two Electron Energy:         1182.58683031 Eh           32179.82364 eV
Max COSX asymmetry :            0.00000240 Eh               0.00007 eV
CPCM Dielectric    :           -0.10194040 Eh              -2.77394 eV
SMD CDS (Gcds)     :            0.00870807 Eh               0.23696 eV

Virial components:
Potential Energy   :        -1978.34041499 Eh          -53833.37953 eV
Kinetic Energy     :          988.08201161 Eh           26887.07845 eV
Virial Ratio       :            2.00220264


DFT components:
N(Alpha)           :       48.999939234811 electrons
N(Beta)            :       48.999939234811 electrons
N(Total)           :       97.999878469623 electrons
E(XC)              :      -73.544112427140 Eh       
DFET-embed. en.    :        0.000000000000 Eh       
CPCM Solvation Model Properties:
Surface-charge          :            0.95129165
Charge-correction       :           -0.00613114 Eh              -0.16684 eV
Free-energy (cav+disp)  :            0.00870807 Eh               0.23696 eV

---------------
SCF CONVERGENCE
---------------

  Last Energy change         ...    3.2287e-11  Tolerance :   1.0000e-08
  Last MAX-Density change    ...    8.8818e-15  Tolerance :   1.0000e-07
  Last RMS-Density change    ...    6.4123e-17  Tolerance :   5.0000e-09
[...]
      7       0.002163  -0.001614  -0.051918  -0.016990   0.087873  -0.057728
      8       0.001204   0.000856  -0.134662   0.095354   0.012254  -0.241256
      9      -0.004868   0.004379   0.104946   0.117580  -0.325156  -0.048438
     10      -0.000607   0.000272   0.069005   0.033442  -0.221360   0.091338
     11       0.001809  -0.001817   0.051649  -0.012357  -0.175176   0.172634
     12      -0.000060   0.000905  -0.111854   0.007046   0.182497   0.074145
     13      -0.002139   0.001322   0.053395  -0.013753   0.145434  -0.180893
     14      -0.003721   0.001661   0.138347  -0.028826   0.145983  -0.326270
     15       0.008109  -0.008056   0.059016  -0.058379  -0.289408  -0.167127
     16       0.002407  -0.002118  -0.075144   0.037785  -0.031094   0.078609
     17       0.000870  -0.000699  -0.141647   0.077974   0.055251   0.196613
     18       0.004697   0.005043   0.046022   0.532416   0.100187   0.071989
     19      -0.002209   0.003636  -0.061925  -0.104625  -0.079338   0.001771
     20      -0.003498   0.003582  -0.083559  -0.235999  -0.128207  -0.013436
     21      -0.002012   0.000787  -0.058934  -0.182741  -0.065448  -0.008995
     22       0.001777  -0.001703   0.054728   0.115481   0.044512  -0.004685
     23       0.002581  -0.001815   0.076114   0.172358   0.068008  -0.003253
     24      -0.002928  -0.003347   0.012129  -0.244711   0.005543  -0.037937
     25      -0.000503  -0.000673   0.006493  -0.030924   0.012948  -0.002727
     26      -0.000140  -0.000235   0.005385   0.012331   0.015577   0.005185
     27       0.001293  -0.001012  -0.009117   0.002176  -0.016844   0.002698
     28      -0.000140  -0.000007  -0.006008   0.009348  -0.005670  -0.006378
     29      -0.001269   0.001179  -0.005461   0.017986   0.011266  -0.001428
     30      -0.018075   0.025768  -0.486612   0.494745  -0.114514  -0.457036
     31       0.002892  -0.002358  -0.059443  -0.026029   0.106497  -0.048497
     32       0.014696  -0.018895   0.220720  -0.348602   0.234768   0.221202
     33       0.005998  -0.000109  -0.492103   0.047555   0.418274  -0.162733
     34       0.006774  -0.002886  -0.297208  -0.023594   0.235673   0.048465
     35       0.007419  -0.004829  -0.215183  -0.058657   0.149482   0.165461
     36      -0.003127   0.003342  -0.064509   0.020264   0.270519  -0.020633
     37       0.010905  -0.007484  -0.231989  -0.008648  -0.027178   0.233885
     38       0.020017  -0.014114  -0.340949  -0.026369  -0.168417   0.390470
     39      -0.053717  -0.010753  -0.000703   0.004222   0.000266   0.001784
     40      -0.023201   0.055027  -0.000065  -0.003780  -0.000112   0.000061
     41      -0.023332  -0.027249  -0.000806   0.001285  -0.000302   0.002798
     42      -0.217281   0.329232   0.004683  -0.031522   0.005089   0.016055
     43      -0.057334  -0.542529  -0.011715   0.049230  -0.006346  -0.006942
     44       0.377545   0.316825   0.007810  -0.022601   0.000178  -0.008883
     45       0.293476  -0.282329  -0.004571   0.008299  -0.005741  -0.005652
     46       0.370295  -0.473296  -0.005073   0.027455  -0.005734  -0.021426
     47      -0.312114  -0.192804   0.001737   0.043393   0.005974  -0.022084
     48       0.650378   0.097018   0.004321  -0.037785  -0.002345  -0.010984
     49      -0.003563   0.275669   0.008206  -0.005414   0.003022  -0.002915
     50       0.240348   0.255115   0.009673  -0.017026   0.000494  -0.003905
     51      -0.002830  -0.000506  -0.001086   0.001745  -0.000659   0.001797
     52      -0.000829   0.002390   0.000242  -0.000168  -0.000984  -0.004204
     53      -0.000900  -0.001836  -0.001241   0.002251  -0.000534   0.001441
                 48         49         50         51         52         53    
      0      -0.000187   0.000002   0.000184  -0.000579  -0.000319   0.000258
      1       0.000679  -0.000291   0.000123   0.001037   0.000085  -0.000007
      2      -0.000342   0.000119  -0.000435   0.001181  -0.000147  -0.000300
      3       0.000072  -0.000001   0.000031  -0.000225   0.000076   0.000222
      4      -0.000238   0.000091  -0.000017   0.000513  -0.000243  -0.000155
      5      -0.000128   0.000093   0.000027   0.000901  -0.000410  -0.000295
      6      -0.000140   0.000083   0.000053  -0.036102   0.005924   0.007195
      7      -0.000062   0.000013  -0.000018  -0.055654   0.006548   0.006952
      8       0.000058  -0.000050   0.000001  -0.055746   0.005697   0.005498
      9       0.000042  -0.000034  -0.000018  -0.003858  -0.031272  -0.036613
     10       0.000043  -0.000032  -0.000014   0.005383   0.014963   0.023607
     11      -0.000024  -0.000023  -0.000025   0.010174   0.039536   0.056009
     12       0.000020  -0.000000  -0.000026   0.001449   0.066053  -0.053406
     13       0.000026   0.000010  -0.000008   0.000440   0.017488  -0.016853
     14       0.000033   0.000021   0.000020   0.000056  -0.003832  -0.001355
     15       0.000150  -0.000133  -0.000064   0.000462  -0.001609   0.001670
     16      -0.000057  -0.000015  -0.000126  -0.000037   0.000684  -0.000835
     17       0.000108  -0.000151  -0.000023  -0.000165   0.001946  -0.002197
     18      -0.000114   0.000004   0.000009   0.000031   0.001034  -0.000790
     19      -0.000152   0.000182   0.000044   0.000124   0.000166  -0.000123
     20      -0.000146   0.000180   0.000013   0.000108  -0.000151   0.000072
     21      -0.000068   0.000125  -0.000026   0.000033  -0.000085   0.000094
     22       0.000052  -0.000112  -0.000037  -0.000052  -0.000097   0.000101
     23       0.000064  -0.000064   0.000007  -0.000066  -0.000079   0.000102
     24       0.000063  -0.000044  -0.000020  -0.000090  -0.000397   0.000295
     25       0.000049  -0.000027   0.000008  -0.000028   0.000224  -0.000142
     26       0.000017  -0.000021  -0.000007  -0.000012   0.000481  -0.000313
     27      -0.000085   0.000029  -0.000189   0.000091   0.000013  -0.000020
     28      -0.000001   0.000008   0.000181  -0.000061  -0.000025  -0.000006
     29       0.000213  -0.000053   0.000253  -0.000152   0.000028   0.000041
     30       0.000589  -0.000140  -0.000068   0.400165  -0.045404  -0.045992
     31       0.000780  -0.000254  -0.000088   0.633193  -0.068618  -0.068222
     32       0.000684  -0.000249  -0.000142   0.638491  -0.067933  -0.066681
     33       0.000183  -0.000221  -0.000223   0.080083   0.331234   0.424460
     34      -0.000061   0.000125   0.000187  -0.050427  -0.190245  -0.248685
     35      -0.000394   0.000291   0.000317  -0.119381  -0.465680  -0.604066
     36      -0.000240   0.000021   0.000559  -0.018986  -0.756219   0.587381
     37      -0.000083   0.000022   0.000103  -0.005541  -0.214586   0.168602
     38      -0.000002   0.000014  -0.000022   0.000274   0.019124  -0.011028
     39       0.015583   0.085658   0.020894   0.000045   0.000037   0.000023
     40      -0.023056  -0.002891   0.083073   0.000038   0.000059   0.000006
     41      -0.037375   0.038807  -0.037941   0.000083   0.000004   0.000018
     42       0.418394  -0.443218  -0.319038  -0.000754  -0.000434  -0.000071
     43       0.365951  -0.411863  -0.270639  -0.000698  -0.000352  -0.000057
     44       0.220388  -0.242991  -0.183556  -0.000446  -0.000222  -0.000101
     45      -0.472106  -0.609737   0.270646   0.000483   0.000200  -0.000202
     46       0.296315   0.397011  -0.152790  -0.000303  -0.000166   0.000015
     47      -0.144676  -0.175647   0.070799  -0.000080   0.000010  -0.000045
     48      -0.131608   0.037182  -0.198282   0.000110  -0.000101   0.000004
     49      -0.389753   0.050868  -0.564820   0.000346  -0.000282  -0.000027
     50       0.373410  -0.042557   0.567939  -0.000361   0.000197  -0.000100
     51       0.000086  -0.000171  -0.000011   0.000018   0.000007   0.000005
     52      -0.000066   0.000017  -0.000145  -0.000050  -0.000024  -0.000012
     53      -0.000112  -0.000054  -0.000097   0.000026   0.000018   0.000015


-----------
IR SPECTRUM
-----------

 Mode   freq       eps      Int      T**2         TX        TY        TZ
       cm**-1   L/(mol*cm) km/mol    a.u.
----------------------------------------------------------------------------
  8:     64.70   0.002238   11.31  0.010795  ( 0.018980 -0.098883  0.025640)
  9:     69.04   0.000122    0.62  0.000551  (-0.004562 -0.022999  0.001254)
 10:     92.55   0.001928    9.74  0.006502  (-0.075358 -0.021661 -0.018801)
 11:    111.00   0.001036    5.24  0.002914  (-0.043885  0.028432 -0.013398)
 12:    141.68   0.001054    5.33  0.002322  ( 0.023459 -0.028268  0.031192)
 13:    195.92   0.003068   15.50  0.004886  ( 0.025072 -0.057327  0.031164)
 14:    248.71   0.000562    2.84  0.000705  ( 0.010444  0.003905  0.024092)
 15:    288.10   0.002667   13.48  0.002889  ( 0.039885 -0.034719  0.009628)
 16:    389.85   0.000618    3.12  0.000495  (-0.017262  0.013858 -0.002224)
 17:    403.80   0.031251  157.93  0.024151  (-0.116757  0.080067 -0.064099)
 18:    447.43   0.041269  208.56  0.028784  ( 0.111398 -0.119169  0.046614)
 19:    466.99   0.004275   21.60  0.002856  ( 0.052231 -0.002753  0.010990)
 20:    568.70   0.003349   16.92  0.001837  (-0.003902 -0.007225  0.042072)
 21:    586.57   0.006625   33.48  0.003525  ( 0.016608 -0.056545 -0.007170)
 22:    676.21   0.053600  270.87  0.024736  ( 0.099491 -0.116963  0.034016)
 23:    687.35   0.071214  359.89  0.032332  (-0.097899  0.114816 -0.097800)
 24:    748.37   0.000817    4.13  0.000341  ( 0.002939 -0.003518 -0.017874)
 25:    757.93   0.028306  143.05  0.011654  ( 0.037144 -0.085611  0.054273)
 26:    815.56   0.003237   16.36  0.001239  (-0.003348 -0.020941  0.028086)
 27:    830.29   0.008370   42.30  0.003146  ( 0.013642 -0.047612  0.026320)
 28:    901.03   0.017963   90.78  0.006221  (-0.019427 -0.038949 -0.065778)
 29:    964.55   0.002738   13.83  0.000886  (-0.012800  0.017686 -0.020225)
 30:    982.47   0.005125   25.90  0.001628  (-0.034880 -0.013491 -0.015136)
 31:   1014.16   0.000107    0.54  0.000033  ( 0.001798 -0.005272 -0.001352)
 32:   1029.16   0.002252   11.38  0.000683  (-0.005151 -0.025535 -0.002040)
 33:   1064.36   0.122332  618.21  0.035867  ( 0.155246  0.034124  0.102961)
 34:   1102.37   0.039372  198.97  0.011146  ( 0.049624  0.020964  0.090794)
 35:   1178.68   0.014885   75.22  0.003941  ( 0.043668  0.045100 -0.000151)
 36:   1184.14   0.239105  1208.34  0.063013  (-0.230191 -0.059949 -0.080192)
 37:   1270.60   0.049650  250.91  0.012194  ( 0.078599  0.015586  0.075983)
 38:   1290.91   0.194831  984.59  0.047098  ( 0.132648  0.077609  0.153229)
 39:   1359.61   0.006201   31.34  0.001423  (-0.003258  0.026192  0.026956)
 40:   1397.26   0.144045  727.94  0.032171  (-0.085743 -0.079181 -0.136196)
 41:   1431.00   0.043754  221.12  0.009542  ( 0.025361 -0.068619 -0.064729)
 42:   1460.19   0.001643    8.30  0.000351  ( 0.018648  0.001758  0.000451)
 43:   1469.58   0.002000   10.11  0.000425  ( 0.004774 -0.013877  0.014467)
 44:   1488.06   0.015426   77.96  0.003235  ( 0.053929 -0.001825 -0.017985)
 45:   1543.56   0.162981  823.64  0.032950  ( 0.127803 -0.070006 -0.108239)
 46:   1625.38   0.086274  435.99  0.016564  ( 0.124202  0.032123  0.010306)
 47:   1661.91   0.113451  573.33  0.021303  ( 0.082622 -0.083222 -0.086895)
 48:   3048.96   0.021466  108.48  0.002197  ( 0.017379 -0.025524 -0.035264)
 49:   3128.23   0.005272   26.64  0.000526  ( 0.020247  0.001491  0.010667)
 50:   3133.20   0.005335   26.96  0.000531  ( 0.004439  0.021350 -0.007474)
 51:   3205.78   0.004626   23.38  0.000450  (-0.002904 -0.014833 -0.014894)
 52:   3245.87   0.000265    1.34  0.000026  (-0.003867 -0.003242  0.000223)
 53:   3258.18   0.000610    3.08  0.000058  ( 0.006127  0.001636  0.004273)

* The epsilon (eps) is given for a Dirac delta lineshape.
** The dipole moment derivative (T) already includes vibrational overlap.

The first frequency considered to be a vibration is 8
The total number of vibrations considered is 46


--------------------------
THERMOCHEMISTRY AT 298.15K
--------------------------

Temperature         ... 298.15 K
Pressure            ... 1.00 atm
Total Mass          ... 189.18 AMU

Throughout the following assumptions are being made:
  (1) The electronic state is orbitally nondegenerate
  (2) There are no thermally accessible electronically excited states
  (3) Hindered rotations indicated by low frequency modes are not
      treated as such but are treated as vibrations and this may
      cause some error
  (4) All equations used are the standard statistical mechanics
      equations for an ideal gas
  (5) All vibrations are strictly harmonic

freq.      64.70  E(vib)   ...       0.50 
freq.      69.04  E(vib)   ...       0.50 
freq.      92.55  E(vib)   ...       0.47 
freq.     111.00  E(vib)   ...       0.45 
freq.     141.68  E(vib)   ...       0.41 
freq.     195.92  E(vib)   ...       0.36 
freq.     248.71  E(vib)   ...       0.31 
freq.     288.10  E(vib)   ...       0.27 
freq.     389.85  E(vib)   ...       0.20 
freq.     403.80  E(vib)   ...       0.19 
freq.     447.43  E(vib)   ...       0.17 
freq.     466.99  E(vib)   ...       0.16 
freq.     568.70  E(vib)   ...       0.11 
freq.     586.57  E(vib)   ...       0.11 
freq.     676.21  E(vib)   ...       0.08 
freq.     687.35  E(vib)   ...       0.07 
freq.     748.37  E(vib)   ...       0.06 
freq.     757.93  E(vib)   ...       0.06 
freq.     815.56  E(vib)   ...       0.05 
freq.     830.29  E(vib)   ...       0.04 
freq.     901.03  E(vib)   ...       0.03 
freq.     964.55  E(vib)   ...       0.03 
freq.     982.47  E(vib)   ...       0.02 
freq.    1014.16  E(vib)   ...       0.02 
freq.    1029.16  E(vib)   ...       0.02 
freq.    1064.36  E(vib)   ...       0.02 
freq.    1102.37  E(vib)   ...       0.02 
freq.    1178.68  E(vib)   ...       0.01 
freq.    1184.14  E(vib)   ...       0.01 
freq.    1270.60  E(vib)   ...       0.01 
freq.    1290.91  E(vib)   ...       0.01 
freq.    1359.61  E(vib)   ...       0.01 
freq.    1397.26  E(vib)   ...       0.00 
freq.    1431.00  E(vib)   ...       0.00 
freq.    1460.19  E(vib)   ...       0.00 
freq.    1469.58  E(vib)   ...       0.00 
freq.    1488.06  E(vib)   ...       0.00 
freq.    1543.56  E(vib)   ...       0.00 
freq.    1625.38  E(vib)   ...       0.00 
freq.    1661.91  E(vib)   ...       0.00 
freq.    3048.96  E(vib)   ...       0.00 
freq.    3128.23  E(vib)   ...       0.00 
freq.    3133.20  E(vib)   ...       0.00 
freq.    3205.78  E(vib)   ...       0.00 
freq.    3245.87  E(vib)   ...       0.00 
freq.    3258.18  E(vib)   ...       0.00 

------------
INNER ENERGY
------------

The inner energy is: U= E(el) + E(ZPE) + E(vib) + E(rot) + E(trans)
    E(el)   - is the total energy from the electronic structure calculation
              = E(kin-el) + E(nuc-el) + E(el-el) + E(nuc-nuc)
    E(ZPE)  - the the zero temperature vibrational energy from the frequency calculation
    E(vib)  - the the finite temperature correction to E(ZPE) due to population
              of excited vibrational states
    E(rot)  - is the rotational thermal energy
    E(trans)- is the translational thermal energy

Summary of contributions to the inner energy U:
Electronic energy                ...   -990.26691024 Eh
Zero point energy                ...      0.12081108 Eh      75.81 kcal/mol
Thermal vibrational correction   ...      0.00763455 Eh       4.79 kcal/mol
Thermal rotational correction    ...      0.00141627 Eh       0.89 kcal/mol
Thermal translational correction ...      0.00141627 Eh       0.89 kcal/mol
-----------------------------------------------------------------------
Total thermal energy                   -990.13563206 Eh


Summary of corrections to the electronic energy:
(perhaps to be used in another calculation)
Total thermal correction                  0.01046709 Eh       6.57 kcal/mol
Non-thermal (ZPE) correction              0.12081108 Eh      75.81 kcal/mol
-----------------------------------------------------------------------
Total correction                          0.13127818 Eh      82.38 kcal/mol


--------
ENTHALPY
--------

The enthalpy is H = U + kB*T
                kB is Boltzmann's constant
Total free energy                 ...   -990.13563206 Eh 
Thermal Enthalpy correction       ...      0.00094421 Eh       0.59 kcal/mol
-----------------------------------------------------------------------
Total Enthalpy                    ...   -990.13468786 Eh


Note: Only C1 symmetry has been detected, increase convergence thresholds 
      if your molecule has a higher symmetry. Symmetry factor of 1.0 is   
      used for the rotational entropy correction. 
 

Note: Rotational entropy computed according to Herzberg 
Infrared and Raman Spectra, Chapter V,1, Van Nostrand Reinhold, 1945 
Point Group:  C1, Symmetry Number:   1  
Rotational constants in cm-1:     0.032606     0.028126     0.019374 

Vibrational entropy computed according to the QRRHO of S. Grimme
Chem.Eur.J. 2012 18 9955


-------
ENTROPY
-------

The entropy contributions are T*S = T*(S(el)+S(vib)+S(rot)+S(trans))
     S(el)   - electronic entropy
     S(vib)  - vibrational entropy
     S(rot)  - rotational entropy
     S(trans)- translational entropy
The entropies will be listed as multiplied by the temperature to get
units of energy

Electronic entropy                ...      0.00000000 Eh      0.00 kcal/mol
Vibrational entropy               ...      0.01339212 Eh      8.40 kcal/mol
Rotational entropy                ...      0.01467459 Eh      9.21 kcal/mol
Translational entropy             ...      0.01977419 Eh     12.41 kcal/mol
-----------------------------------------------------------------------
Final entropy term                ...      0.04784090 Eh     30.02 kcal/mol

In case the symmetry of your molecule has not been determined correctly
or in case you have a reason to use a different symmetry number we print 
out the resulting rotational entropy values for sn=1,12 :
 --------------------------------------------------------
|  sn= 1 | S(rot)=       0.01467459 Eh      9.21 kcal/mol|
|  sn= 2 | S(rot)=       0.01402014 Eh      8.80 kcal/mol|
|  sn= 3 | S(rot)=       0.01363730 Eh      8.56 kcal/mol|
|  sn= 4 | S(rot)=       0.01336568 Eh      8.39 kcal/mol|
|  sn= 5 | S(rot)=       0.01315499 Eh      8.25 kcal/mol|
|  sn= 6 | S(rot)=       0.01298285 Eh      8.15 kcal/mol|
|  sn= 7 | S(rot)=       0.01283730 Eh      8.06 kcal/mol|
|  sn= 8 | S(rot)=       0.01271122 Eh      7.98 kcal/mol|
|  sn= 9 | S(rot)=       0.01260001 Eh      7.91 kcal/mol|
|  sn=10 | S(rot)=       0.01250053 Eh      7.84 kcal/mol|
|  sn=11 | S(rot)=       0.01241054 Eh      7.79 kcal/mol|
|  sn=12 | S(rot)=       0.01232839 Eh      7.74 kcal/mol|
 --------------------------------------------------------


-------------------
GIBBS FREE ENERGY
-------------------

The Gibbs free energy is G = H - T*S

Total enthalpy                    ...   -990.13468786 Eh 
Total entropy correction          ...     -0.04784090 Eh    -30.02 kcal/mol
-----------------------------------------------------------------------
Final Gibbs free energy         ...   -990.18252876 Eh

For completeness - the Gibbs free energy minus the electronic energy
G-E(el)                           ...      0.08438148 Eh     52.95 kcal/mol



Timings for individual modules:

Sum of individual times         ...    74519.227 sec (=1241.987 min)
GTO integral calculation        ...       52.537 sec (=   0.876 min)   0.1 %
SCF iterations                  ...      976.535 sec (=  16.276 min)   1.3 %
SCF Gradient evaluation         ...      214.797 sec (=   3.580 min)   0.3 %
Geometry relaxation             ...        1.475 sec (=   0.025 min)   0.0 %
Numerical frequency calculation ...     2435.736 sec (=  40.596 min)   3.3 %
NEB Iterations                  ...    70838.146 sec (=1180.636 min)  95.1 %
                             ****ORCA TERMINATED NORMALLY****
TOTAL RUN TIME: 0 days 20 hours 41 minutes 3 seconds 790 msec
