
                                 *****************
                                 * O   R   C   A *
                                 *****************

                                            #,                                       
                                            ###                                      
                                            ####                                     
                                            #####                                    
                                            ######                                   
                                           ########,                                 
                                     ,,################,,,,,                         
                               ,,#################################,,                 
                          ,,##########################################,,             
                       ,#########################################, ''#####,          
                    ,#############################################,,   '####,        
                  ,##################################################,,,,####,       
                ,###########''''           ''''###############################       
              ,#####''   ,,,,##########,,,,          '''####'''          '####       
            ,##' ,,,,###########################,,,                        '##       
           ' ,,###''''                  '''############,,,                           
         ,,##''                                '''############,,,,        ,,,,,,###''
      ,#''                                            '''#######################'''  
     '                                                          ''''####''''         
             ,#######,   #######,   ,#######,      ##                                
            ,#'     '#,  ##    ##  ,#'     '#,    #''#        ######   ,####,        
            ##       ##  ##   ,#'  ##            #'  '#       #        #'  '#        
            ##       ##  #######   ##           ,######,      #####,   #    #        
            '#,     ,#'  ##    ##  '#,     ,#' ,#      #,         ##   #,  ,#        
             '#######'   ##     ##  '#######'  #'      '#     #####' # '####'        



                  #######################################################
                  #                        -***-                        #
                  #          Department of theory and spectroscopy      #
                  #    Directorship and core code : Frank Neese         #
                  #        Max Planck Institute fuer Kohlenforschung    #
                  #                Kaiser Wilhelm Platz 1               #
                  #                 D-45470 Muelheim/Ruhr               #
                  #                      Germany                        #
                  #                                                     #
                  #                  All rights reserved                #
                  #                        -***-                        #
                  #######################################################


                         Program Version 5.0.4 -  RELEASE  -


 With contributions from (in alphabetic order):
   Daniel Aravena         : Magnetic Suceptibility
   Michael Atanasov       : Ab Initio Ligand Field Theory (pilot matlab implementation)
   Alexander A. Auer      : GIAO ZORA, VPT2 properties, NMR spectrum
   Ute Becker             : Parallelization
   Giovanni Bistoni       : ED, misc. LED, open-shell LED, HFLD
   Martin Brehm           : Molecular dynamics
   Dmytro Bykov           : SCF Hessian
   Vijay G. Chilkuri      : MRCI spin determinant printing, contributions to CSF-ICE
   Dipayan Datta          : RHF DLPNO-CCSD density
   Achintya Kumar Dutta   : EOM-CC, STEOM-CC
   Dmitry Ganyushin       : Spin-Orbit,Spin-Spin,Magnetic field MRCI
   Miquel Garcia          : C-PCM and meta-GGA Hessian, CC/C-PCM, Gaussian charge scheme
   Yang Guo               : DLPNO-NEVPT2, F12-NEVPT2, CIM, IAO-localization
   Andreas Hansen         : Spin unrestricted coupled pair/coupled cluster methods
   Benjamin Helmich-Paris : MC-RPA, TRAH-SCF, COSX integrals
   Lee Huntington         : MR-EOM, pCC
   Robert Izsak           : Overlap fitted RIJCOSX, COSX-SCS-MP3, EOM
   Marcus Kettner         : VPT2
   Christian Kollmar      : KDIIS, OOCD, Brueckner-CCSD(T), CCSD density, CASPT2, CASPT2-K
   Simone Kossmann        : Meta GGA functionals, TD-DFT gradient, OOMP2, MP2 Hessian
   Martin Krupicka        : Initial AUTO-CI
   Lucas Lang             : DCDCAS
   Marvin Lechner         : AUTO-CI (C++ implementation), FIC-MRCC
   Dagmar Lenk            : GEPOL surface, SMD
   Dimitrios Liakos       : Extrapolation schemes; Compound Job, initial MDCI parallelization
   Dimitrios Manganas     : Further ROCIS development; embedding schemes
   Dimitrios Pantazis     : SARC Basis sets
   Anastasios Papadopoulos: AUTO-CI, single reference methods and gradients
   Taras Petrenko         : DFT Hessian,TD-DFT gradient, ASA, ECA, R-Raman, ABS, FL, XAS/XES, NRVS
   Peter Pinski           : DLPNO-MP2, DLPNO-MP2 Gradient
   Christoph Reimann      : Effective Core Potentials
   Marius Retegan         : Local ZFS, SOC
   Christoph Riplinger    : Optimizer, TS searches, QM/MM, DLPNO-CCSD(T), (RO)-DLPNO pert. Triples
   Tobias Risthaus        : Range-separated hybrids, TD-DFT gradient, RPA, STAB
   Michael Roemelt        : Original ROCIS implementation
   Masaaki Saitow         : Open-shell DLPNO-CCSD energy and density
   Barbara Sandhoefer     : DKH picture change effects
   Avijit Sen             : IP-ROCIS
   Kantharuban Sivalingam : CASSCF convergence, NEVPT2, FIC-MRCI
   Bernardo de Souza      : ESD, SOC TD-DFT
   Georgi Stoychev        : AutoAux, RI-MP2 NMR, DLPNO-MP2 response
   Willem Van den Heuvel  : Paramagnetic NMR
   Boris Wezisla          : Elementary symmetry handling
   Frank Wennmohs         : Technical directorship


 We gratefully acknowledge several colleagues who have allowed us to
 interface, adapt or use parts of their codes:
   Stefan Grimme, W. Hujo, H. Kruse, P. Pracht,  : VdW corrections, initial TS optimization,
                  C. Bannwarth, S. Ehlert          DFT functionals, gCP, sTDA/sTD-DF
   Ed Valeev, F. Pavosevic, A. Kumar             : LibInt (2-el integral package), F12 methods
   Garnet Chan, S. Sharma, J. Yang, R. Olivares  : DMRG
   Ulf Ekstrom                                   : XCFun DFT Library
   Mihaly Kallay                                 : mrcc  (arbitrary order and MRCC methods)
   Jiri Pittner, Ondrej Demel                    : Mk-CCSD
   Frank Weinhold                                : gennbo (NPA and NBO analysis)
   Christopher J. Cramer and Donald G. Truhlar   : smd solvation model
   Lars Goerigk                                  : TD-DFT with DH, B97 family of functionals
   V. Asgeirsson, H. Jonsson                     : NEB implementation
   FAccTs GmbH                                   : IRC, NEB, NEB-TS, DLPNO-Multilevel, CI-OPT
                                                   MM, QMMM, 2- and 3-layer-ONIOM, Crystal-QMMM,
                                                   LR-CPCM, SF, NACMEs, symmetry and pop. for TD-DFT,
                                                   nearIR, NL-DFT gradient (VV10), updates on ESD,
                                                   ML-optimized integration grids
   S Lehtola, MJT Oliveira, MAL Marques          : LibXC Library
   Liviu Ungur et al                             : ANISO software


 Your calculation uses the libint2 library for the computation of 2-el integrals
 For citations please refer to: http://libint.valeyev.net

 Your ORCA version has been built with support for libXC version: 5.1.0
 For citations please refer to: https://tddft.org/programs/libxc/

 This ORCA versions uses:
   CBLAS   interface :  Fast vector & matrix operations
   LAPACKE interface :  Fast linear algebra routines
   SCALAPACK package :  Parallel linear algebra routines
   Shared memory     :  Shared parallel matrices
   BLAS/LAPACK       :  OpenBLAS 0.3.15  USE64BITINT DYNAMIC_ARCH NO_AFFINITY SkylakeX SINGLE_THREADED
        Core in use  :  SkylakeX
   Copyright (c) 2011-2014, The OpenBLAS Project




***************************************
The coordinates will be read from file: reactants.xyz
***************************************


Your calculation utilizes the SMD solvation module
Please cite in your paper:
A.V. Marenich, C.J. Cramer, D.G. Truhlar J. Phys. Chem. B, 113, (2009), 6378 

XCFun DFT library Copyright 2009-2010 Ulf Ekstrom and contributors.
See http://admol.org/xcfun for more information.
This is free software; see the source code for copying conditions.
There is ABSOLUTELY NO WARRANTY; not even for MERCHANTABILITY or FITNESS FOR A PARTICULAR PURPOSE.
For details see the documentation.
Scientific users of this library should cite U. Ekstrom, L. Visscher, R. Bast, A. J. Thorvaldsen and K. Ruud;
J.Chem.Theor.Comp. 2010, DOI: 10.1021/ct100117s
XCFun Version 0.99 

================================================================================

----- Orbital basis set information -----
Your calculation utilizes the basis: 6-311++G**
   H, Li - Ne  : R. Krishnan, J. S. Binkley, R. Seeger and J. A. Pople, J. Chem. Phys. 72, 650 (1980).
   Na - Ar     : A. D. McLean and G. S. Chandler J. Chem. Phys. 72, 5639, (1980).
   K  - Ca     : J.-P. Blaudeau, M. P. McGrath, L. A. Curtiss and L. Radom, J. Chem. Phys. 107, 5016 (1997).
   Ga - Kr     : L. A. Curtiss, M. P. McGrath, J.-P. Blandeau, N. E. Davis, R. C. Binning and L. Radom, J. Chem. Phys. 103, 6104 (1995).
   Pol./Diff.
   H, Li - Cl  : T. Clark, J. Chandrasekhar and P. v. R. Schleyer, J. Comp. Chem. 4, 294 (1983).
   H - Ne      : M. J. Frisch, J. A. Pople and J. S. Binkley, J. Chem. Phys. 80, 3265 (1984).

----- AuxJ basis set information -----
Your calculation utilizes the auxiliary basis: def2/J
   F. Weigend, Phys. Chem. Chem. Phys. 8, 1057 (2006).

================================================================================
                                        WARNINGS
                       Please study these warnings very carefully!
================================================================================


WARNING: Geometry Optimization
  ===> : Switching off AutoStart
         For restart on a previous wavefunction, please use MOREAD

INFO   : the flag for use of the SHARK integral package has been found!

================================================================================
                                       INPUT FILE
================================================================================
NAME = structure_opt.inp
|  1> !wb97x 6-311++G** OPT CPCM(WATER)
|  2> %maxcore  3500
|  3> %pal
|  4> nprocs 24
|  5> end
|  6> %cpcm
|  7> smd true
|  8> SMDsolvent "water"
|  9> end
| 10> %geom
| 11> ConstrainFragments {1} end
| 12> ConstrainFragments {4} end
| 13> ConnectFragments
| 14> { 1 2 C 5 7 }
| 15> { 1 2 C 0 9 }
| 16> { 2 3 C 13 5 }
| 17> { 3 4 C 13 17 }
| 18> end
| 19> end
| 20> * XYZfile -1 1 reactants.xyz
| 21> %geom
| 22> Fragments
| 23> 1 {0:5} end
| 24> 2 {6:12} end
| 25> 3 {13:16} end
| 26> 4 {17} end
| 27> end
| 28> end
| 29> 
| 30>                          ****END OF INPUT****
================================================================================

                       *****************************
                       * Geometry Optimization Run *
                       *****************************

Geometry optimization settings:
Update method            Update   .... BFGS
Choice of coordinates    CoordSys .... Z-matrix Internals
Initial Hessian          InHess   .... Almoef's Model

Convergence Tolerances:
Energy Change            TolE     ....  5.0000e-06 Eh
Max. Gradient            TolMAXG  ....  3.0000e-04 Eh/bohr
RMS Gradient             TolRMSG  ....  1.0000e-04 Eh/bohr
Max. Displacement        TolMAXD  ....  4.0000e-03 bohr
RMS Displacement         TolRMSD  ....  2.0000e-03 bohr
Strict Convergence                ....  False
------------------------------------------------------------------------------
                        ORCA OPTIMIZATION COORDINATE SETUP
------------------------------------------------------------------------------

The optimization will be done in new redundant internal coordinates
Making redundant internal coordinates   ...  (new redundants) done
Evaluating the initial hessian          ...  (Almloef) done
Evaluating the coordinates              ...  done
Calculating the B-matrix                .... done
Calculating the G-matrix                .... done
Diagonalizing the G-matrix              .... done
Imposing constraints:
 Iter   0:  RMS(Cart)=    0.0000000000 RMS(Int)=    0.0000000000
CONVERGED
Small eigenvalue found = 9.897e-03
The first mode is                       ....   68
The number of degrees of freedom        ....   48
Storing new coordinates                 .... done

    -----------------------------------------------------------------
                    Redundant Internal Coordinates


    -----------------------------------------------------------------
         Definition                    Initial Value    Approx d2E/dq
    -----------------------------------------------------------------
      1. B(N   1,C   0)                  1.3611         0.622347   
      2. B(C   2,N   1)                  1.3582         0.628875   
      3. B(C   3,C   2)                  1.3949         0.613658   
      4. B(C   4,C   3)                  1.3934         0.616971   
      5. B(C   5,C   0)                  1.4122         0.575774   
      6. B(C   5,C   4)                  1.4061         0.588917   
      7. B(O   7,C   5)                  2.3435         0.016853 C 
      8. B(O   7,N   6)                  1.2480         0.844503   
      9. B(O   8,N   6)                  1.3769         0.525866   
     10. B(F   9,C   0)                  1.3500         0.602260 C 
     11. B(F   9,N   6)                  2.8678         0.002044   
     12. B(F   9,O   7)                  2.5821         0.005837   
     13. B(H  11,H  10)                  2.4818         0.000415   
     14. B(H  12,O   8)                  2.5152         0.001717   
     15. B(H  12,H  11)                  2.4663         0.000439   
     16. B(H  12,N   6)                  2.7029         0.000861   
     17. B(C  13,F   9)                  9.0870         0.000000 C 
     18. B(H  14,C  13)                  1.0940         0.354868   
     19. B(H  15,C  13)                  1.0931         0.356070   
     20. B(H  16,C  13)                  1.0931         0.356036   
     21. B(S  17,C  13)                  1.8030         0.369495 C 
     22. A(N   1,C   0,F   9)          118.6704         0.424592 C 
     23. A(C   5,C   0,F   9)          121.1725         0.421471 C 
     24. A(N   1,C   0,C   5)          120.1571         0.425830   
     25. A(C   0,N   1,C   2)          121.9524         0.429796   
     26. A(N   1,C   2,C   3)          120.0262         0.431531   
     27. A(C   2,C   3,C   4)          119.3498         0.432882   
     28. A(C   3,C   4,C   5)          120.4718         0.429694   
     29. A(C   0,C   5,C   4)          118.0425         0.424407   
     30. A(C   0,C   5,O   7)           94.5313         0.237820 C 
     31. A(C   4,C   5,O   7)          147.4261         0.238582 C 
     32. A(F   9,N   6,H  12)          110.0144         0.106848   
     33. A(O   7,N   6,F   9)           64.2090         0.186619   
     34. A(O   7,N   6,H  12)          174.2234         0.159181   
     35. A(O   8,N   6,H  12)           67.2752         0.152046   
     36. A(O   7,N   6,O   8)          118.5014         0.433822   
     37. A(N   6,O   7,F   9)           89.9947         0.212791   
     38. A(C   5,O   7,N   6)           31.7456         0.248611 C 
     39. A(C   5,O   7,F   9)           58.2491         0.140475 C 
     40. A(N   6,O   8,H  12)           82.3972         0.162696   
     41. A(C   0,F   9,C  13)          128.3973         0.089532   
     42. A(N   6,F   9,O   7)           25.7962         0.120482   
     43. A(O   7,F   9,C  13)           85.7885         0.089185 C 
     44. A(C   0,F   9,O   7)           86.0471         0.203997 C 
     45. A(C   0,F   9,N   6)           60.2509         0.179684 C 
     46. A(N   6,F   9,C  13)          101.9503         0.089146 C 
     47. A(H  10,H  11,H  12)          119.7063         0.095112   
     48. A(N   6,H  12,O   8)           30.3275         0.103999   
     49. A(N   6,H  12,H  11)          126.7169         0.097913   
     50. A(O   8,H  12,H  11)          157.0445         0.099419   
     51. A(H  14,C  13,H  16)          108.8619         0.289656   
     52. A(H  15,C  13,H  16)          109.0664         0.289809   
     53. A(F   9,C  13,H  14)          112.1963         0.089414 C 
     54. A(H  16,C  13,S  17)          109.8991         0.339569 C 
     55. A(F   9,C  13,H  15)          109.6679         0.089415 C 
     56. A(F   9,C  13,H  16)          107.9968         0.089415 C 
     57. A(H  14,C  13,S  17)          109.9960         0.339383 C 
     58. A(H  15,C  13,S  17)          109.9916         0.339575 C 
     59. A(H  14,C  13,H  15)          108.9989         0.289660   
     60. D(C   2,N   1,C   0,C   5)     -0.1041         0.028432   
     61. D(C   2,N   1,C   0,F   9)    179.9112         0.028432 C 
     62. D(C   3,C   2,N   1,C   0)      0.1066         0.025783   
     63. D(C   4,C   3,C   2,N   1)     -0.0956         0.020965   
     64. D(C   5,C   4,C   3,C   2)      0.0854         0.021202   
     65. D(C   4,C   5,C   0,N   1)      0.0896         0.022761   
     66. D(C   4,C   5,C   0,F   9)   -179.9260         0.022761 C 
     67. D(O   7,C   5,C   0,N   1)    179.9933         0.022761 C 
     68. D(O   7,C   5,C   0,F   9)     -0.0223         0.022761 C 
     69. D(C   0,C   5,C   4,C   3)     -0.0818         0.021656   
     70. D(O   7,C   5,C   4,C   3)   -179.9036         0.021656 C 
     71. D(N   6,O   7,C   5,C   0)   -179.9521         0.001517 C 
     72. D(N   6,O   7,C   5,C   4)     -0.1099         0.001517 C 
     73. D(F   9,O   7,C   5,C   0)      0.0117         0.001517 C 
     74. D(F   9,O   7,N   6,O   8)    179.9932         0.079747   
     75. D(C   5,O   7,N   6,F   9)      0.0308         0.079747 C 
     76. D(F   9,O   7,N   6,H  12)      0.1568         0.079747   
     77. D(C   5,O   7,N   6,O   8)   -179.9761         0.079747 C 
     78. D(C   5,O   7,N   6,H  12)      0.1876         0.079747 C 
     79. D(F   9,O   7,C   5,C   4)    179.8539         0.001517 C 
     80. D(H  12,O   8,N   6,O   7)   -179.9821         0.025649   
     81. D(C  13,F   9,N   6,O   7)    -52.3825         0.001500 C 
     82. D(N   6,F   9,C   0,C   5)      0.0236         0.035386 C 
     83. D(O   7,F   9,C   0,N   1)   -179.9952         0.035386 C 
     84. D(O   7,F   9,C   0,C   5)      0.0202         0.035386 C 
     85. D(C  13,F   9,C   0,N   1)     98.5559         0.035386   
     86. D(C  13,F   9,C   0,C   5)    -81.4287         0.035386   
     87. D(O   7,F   9,N   6,H  12)   -179.9832         0.001500   
     88. D(C   0,F   9,N   6,O   7)   -179.9922         0.001500 C 
     89. D(N   6,F   9,C   0,N   1)   -179.9918         0.035386 C 
     90. D(C   0,F   9,N   6,H  12)      0.0246         0.001500 C 
     91. D(C  13,F   9,N   6,H  12)    127.6343         0.001500 C 
     92. D(C   0,F   9,O   8,H  12)      0.0232         0.001500 C 
     93. D(C   0,F   9,O   7,N   6)      0.0068         0.001503 C 
     94. D(C   0,F   9,O   7,C   5)     -0.0123         0.001503 C 
     95. D(C  13,F   9,O   7,N   6)    129.0101         0.001503 C 
     96. D(C  13,F   9,O   7,C   5)    128.9911         0.001503   
     97. D(N   6,F   9,O   7,C   5)     -0.0190         0.001503 C 
     98. D(O   7,F   9,O   8,H  12)   -179.9897         0.001500   
     99. D(C  13,F   9,O   8,H  12)    127.4810         0.001500 C 
    100. D(O   8,H  12,N   6,O   7)    179.8441         0.001501   
    101. D(N   6,H  12,H  11,H  10)      0.0466         0.001502   
    102. D(H  11,H  12,N   6,O   7)     -0.1748         0.001501   
    103. D(H  11,H  12,N   6,O   8)    179.9811         0.001501   
    104. D(H  11,H  12,N   6,F   9)     -0.0245         0.001501   
    105. D(O   8,H  12,N   6,F   9)    179.9943         0.001501   
    106. D(H  11,H  12,O   8,N   6)     -0.0388         0.001502   
    107. D(O   8,H  12,H  11,H  10)      0.0710         0.001502   
    108. D(H  14,C  13,F   9,N   6)    141.9114         0.001500 C 
    109. D(H  14,C  13,F   9,O   7)    121.6909         0.001500 C 
    110. D(H  14,C  13,F   9,C   0)   -156.7366         0.001500   
    111. D(H  15,C  13,F   9,N   6)     20.6313         0.001500 C 
    112. D(H  15,C  13,F   9,O   7)      0.4107         0.001500 C 
    113. D(H  15,C  13,F   9,C   0)     81.9833         0.001500   
    114. D(H  16,C  13,F   9,N   6)    -98.1103         0.001500 C 
    115. D(H  16,C  13,F   9,O   7)   -118.3308         0.001500 C 
    116. D(H  16,C  13,F   9,C   0)    -36.7582         0.001500   
    -----------------------------------------------------------------

Number of atoms                         .... 18
Number of degrees of freedom            .... 116

         *************************************************************
         *                GEOMETRY OPTIMIZATION CYCLE   1            *
         *************************************************************
---------------------------------
CARTESIAN COORDINATES (ANGSTROEM)
---------------------------------
  C      0.000000    0.000000    1.820000
  N      1.178000   -0.196000    2.473000
  C      1.255000   -0.207000    3.829000
  C      0.105000   -0.016000    4.595000
  C     -1.116000    0.187000    3.955000
  C     -1.192000    0.198000    2.551000
  N     -2.456000    0.409000    1.893000
  O     -2.541000    0.423000    0.648000
  O     -3.602000    0.600000    2.632000
  F      0.000000    0.000000    0.470000
  H      2.209000   -0.366000    4.313000
  H      0.163000   -0.026000    5.676000
  H     -2.005000    0.335000    4.557000
  C     -2.201000   -6.773000   -5.174000
  H     -1.742000   -6.655000   -6.160000
  H     -3.287000   -6.817000   -5.290000
  H     -1.851000   -7.709000   -4.731000
  S     -1.750000   -5.386000   -4.114000

----------------------------
CARTESIAN COORDINATES (A.U.)
----------------------------
  NO LB      ZA    FRAG     MASS         X           Y           Z
   0 C     6.0000    1    12.011    0.000000    0.000000    3.439302
   1 N     7.0000    1    14.007    2.226097   -0.370386    4.673293
   2 C     6.0000    1    12.011    2.371606   -0.391173    7.235761
   3 C     6.0000    1    12.011    0.198421   -0.030236    8.683292
   4 C     6.0000    1    12.011   -2.108934    0.353379    7.473867
   5 C     6.0000    1    12.011   -2.252554    0.374166    4.820691
   6 N     7.0000    2    14.007   -4.641167    0.772898    3.577252
   7 O     8.0000    2    15.999   -4.801794    0.799354    1.224543
   8 O     8.0000    2    15.999   -6.806794    1.133836    4.973759
   9 F     9.0000    2    18.998    0.000000    0.000000    0.888171
  10 H     1.0000    2     1.008    4.174405   -0.691640    8.150389
  11 H     1.0000    2     1.008    0.308025   -0.049133   10.726086
  12 H     1.0000    2     1.008   -3.788901    0.633058    8.611482
  13 C     6.0000    3    12.011   -4.159287  -12.799115   -9.777443
  14 H     1.0000    3     1.008   -3.291903  -12.576127  -11.640713
  15 H     1.0000    3     1.008   -6.211530  -12.882263   -9.996651
  16 H     1.0000    3     1.008   -3.497883  -14.567899   -8.940294
  17 S    16.0000    4    32.060   -3.307021  -10.178065   -7.774333

----------------------------------------------
CARTESIAN COORDINATES OF FRAGMENTS (ANGSTROEM)
----------------------------------------------

 FRAGMENT 1 
  C     0.000000    0.000000    1.820000
  N     1.178000   -0.196000    2.473000
  C     1.255000   -0.207000    3.829000
  C     0.105000   -0.016000    4.595000
  C    -1.116000    0.187000    3.955000
  C    -1.192000    0.198000    2.551000

 FRAGMENT 2 
  N    -2.456000    0.409000    1.893000
  O    -2.541000    0.423000    0.648000
  O    -3.602000    0.600000    2.632000
  F     0.000000    0.000000    0.470000
  H     2.209000   -0.366000    4.313000
  H     0.163000   -0.026000    5.676000
  H    -2.005000    0.335000    4.557000

 FRAGMENT 3 
  C    -2.201000   -6.773000   -5.174000
  H    -1.742000   -6.655000   -6.160000
  H    -3.287000   -6.817000   -5.290000
  H    -1.851000   -7.709000   -4.731000

 FRAGMENT 4 
  S    -1.750000   -5.386000   -4.114000

--------------------------------
INTERNAL COORDINATES (ANGSTROEM)
--------------------------------
 C      0   0   0     0.000000000000     0.00000000     0.00000000
 N      1   0   0     1.361069065110     0.00000000     0.00000000
 C      2   1   0     1.358228993948   121.95243626     0.00000000
 C      3   2   1     1.394896770374   120.02620694     0.10655554
 C      4   3   2     1.393431017309   119.34983770   359.90435571
 C      5   4   3     1.406098502951   120.47178172     0.08537773
 N      6   5   4     1.440548853736   120.30882193   180.03842131
 O      7   6   5     1.247976762604   121.13704526   179.93147861
 O      7   6   5     1.376923382037   120.36156660   359.90709941
 F      1   2   3     1.350000000000   118.67037638   179.91115691
 H      3   2   1     1.081504969938   119.86701156   179.98746005
 H      4   3   2     1.082601034546   120.19197482   179.89186186
 H      5   4   3     1.083803026384   118.91636700   180.02085854
 C     10   1   2     9.086950313499   128.39727246    98.55589311
 H     14  10   1     1.093984003539   112.19628956   203.26344576
 H     14  10   1     1.093063584610   109.66792653    81.98333651
 H     14  10   1     1.093089657805   107.99676191   323.24179553
 S     14  10   1     1.802989184660     2.38826894   180.19660178

---------------------------
INTERNAL COORDINATES (A.U.)
---------------------------
 C      0   0   0     0.000000000000     0.00000000     0.00000000
 N      1   0   0     2.572047782411     0.00000000     0.00000000
 C      2   1   0     2.566680825712   121.95243626     0.00000000
 C      3   2   1     2.635972881098   120.02620694     0.10655554
 C      4   3   2     2.633203009226   119.34983770   359.90435571
 C      5   4   3     2.657141087893   120.47178172     0.08537773
 N      6   5   4     2.722242816095   120.30882193   180.03842131
 O      7   6   5     2.358334302820   121.13704526   179.93147861
 O      7   6   5     2.602008099442   120.36156660   359.90709941
 F      1   2   3     2.551130280794   118.67037638   179.91115691
 H      3   2   1     2.043748205657   119.86701156   179.98746005
 H      4   3   2     2.045819467592   120.19197482   179.89186186
 H      5   4   3     2.048090902982   118.91636700   180.02085854
 C     10   1   2    17.171847485063   128.39727246    98.55589311
 H     14  10   1     2.067330161580   112.19628956   203.26344576
 H     14  10   1     2.065590821875   109.66792653    81.98333651
 H     14  10   1     2.065640093073   107.99676191   323.24179553
 S     14  10   1     3.407155781429     2.38826894   180.19660178

---------------------
BASIS SET INFORMATION
---------------------
There are 6 groups of distinct atoms

 Group   1 Type C   : 12s6p1d contracted to 5s4p1d pattern {63111/3111/1}
 Group   2 Type N   : 12s6p1d contracted to 5s4p1d pattern {63111/3111/1}
 Group   3 Type O   : 12s6p1d contracted to 5s4p1d pattern {63111/3111/1}
 Group   4 Type F   : 12s6p1d contracted to 5s4p1d pattern {63111/3111/1}
 Group   5 Type H   : 6s1p contracted to 4s1p pattern {3111/1}
 Group   6 Type S   : 14s10p1d contracted to 7s6p1d pattern {6311111/421111/1}

Atom   0C    basis set group =>   1
Atom   1N    basis set group =>   2
Atom   2C    basis set group =>   1
Atom   3C    basis set group =>   1
Atom   4C    basis set group =>   1
Atom   5C    basis set group =>   1
Atom   6N    basis set group =>   2
Atom   7O    basis set group =>   3
Atom   8O    basis set group =>   3
Atom   9F    basis set group =>   4
Atom  10H    basis set group =>   5
Atom  11H    basis set group =>   5
Atom  12H    basis set group =>   5
Atom  13C    basis set group =>   1
Atom  14H    basis set group =>   5
Atom  15H    basis set group =>   5
Atom  16H    basis set group =>   5
Atom  17S    basis set group =>   6
---------------------------------
AUXILIARY/J BASIS SET INFORMATION
---------------------------------
There are 6 groups of distinct atoms

 Group   1 Type C   : 12s5p4d2f1g contracted to 6s4p3d1f1g pattern {711111/2111/211/2/1}
 Group   2 Type N   : 12s5p4d2f1g contracted to 6s4p3d1f1g pattern {711111/2111/211/2/1}
 Group   3 Type O   : 12s5p4d2f1g contracted to 6s4p3d1f1g pattern {711111/2111/211/2/1}
 Group   4 Type F   : 12s5p4d2f1g contracted to 6s4p3d1f1g pattern {711111/2111/211/2/1}
 Group   5 Type H   : 5s2p1d contracted to 3s1p1d pattern {311/2/1}
 Group   6 Type S   : 14s5p5d2f1g contracted to 8s4p3d1f1g pattern {71111111/2111/311/2/1}

Atom   0C    basis set group =>   1
Atom   1N    basis set group =>   2
Atom   2C    basis set group =>   1
Atom   3C    basis set group =>   1
Atom   4C    basis set group =>   1
Atom   5C    basis set group =>   1
Atom   6N    basis set group =>   2
Atom   7O    basis set group =>   3
Atom   8O    basis set group =>   3
Atom   9F    basis set group =>   4
Atom  10H    basis set group =>   5
Atom  11H    basis set group =>   5
Atom  12H    basis set group =>   5
Atom  13C    basis set group =>   1
Atom  14H    basis set group =>   5
Atom  15H    basis set group =>   5
Atom  16H    basis set group =>   5
Atom  17S    basis set group =>   6


           ************************************************************
           *        Program running with 24 parallel MPI-processes    *
           *              working on a common directory               *
           ************************************************************
------------------------------------------------------------------------------
                           ORCA GTO INTEGRAL CALCULATION
                           -- RI-GTO INTEGRALS CHOSEN --
------------------------------------------------------------------------------
------------------------------------------------------------------------------
                   ___                                                        
                  /   \      - P O W E R E D   B Y -                         
                 /     \                                                     
                 |  |  |   _    _      __       _____    __    __             
                 |  |  |  | |  | |    /  \     |  _  \  |  |  /  |          
                  \  \/   | |  | |   /    \    | | | |  |  | /  /          
                 / \  \   | |__| |  /  /\  \   | |_| |  |  |/  /          
                |  |  |   |  __  | /  /__\  \  |    /   |      \           
                |  |  |   | |  | | |   __   |  |    \   |  |\   \          
                \     /   | |  | | |  |  |  |  | |\  \  |  | \   \       
                 \___/    |_|  |_| |__|  |__|  |_| \__\ |__|  \__/        
                                                                              
                      - O R C A' S   B I G   F R I E N D -                    
                                      &                                       
                       - I N T E G R A L  F E E D E R -                       
                                                                              
 v1 FN, 2020, v2 2021                                                         
------------------------------------------------------------------------------


Reading SHARK input file structure_opt.SHARKINP.tmp ... ok
----------------------
SHARK INTEGRAL PACKAGE
----------------------

Number of atoms                             ...     18
Number of basis functions                   ...    314
Number of shells                            ...    154
Maximum angular momentum                    ...      2
Integral batch strategy                     ... SHARK/LIBINT Hybrid
RI-J (if used) integral strategy            ... SPLIT-RIJ (Revised 2003 algorithm where possible)
Printlevel                                  ...      1
Contraction scheme used                     ... SEGMENTED contraction
Coulomb Range Separation                    ... NOT USED
Exchange Range Separation                   ... Long Range
   Mu parameter                             ...  0.300000
   Scaling (regular/separated)              ...  0.157706  0.842294
Finite Nucleus Model                        ... NOT USED
Auxiliary Coulomb fitting basis             ... AVAILABLE
   # of basis functions in Aux-J            ...    656
   # of shells in Aux-J                     ...    212
   Maximum angular momentum in Aux-J        ...      4
Auxiliary J/K fitting basis                 ... NOT available
Auxiliary Correlation fitting basis         ... NOT available
Auxiliary 'external' fitting basis          ... NOT available
Integral threshold                          ...     2.500000e-11
Primitive cut-off                           ...     2.500000e-12
Primitive pair pre-selection threshold      ...     2.500000e-12

Calculating pre-screening integrals         ... done (  0.0 sec) Dimension = 154
Organizing shell pair data                  ... done (  0.1 sec)
Shell pair information
Total number of shell pairs                 ...     11935
Shell pairs after pre-screening             ...      8457
Total number of primitive shell pairs       ...     38500
Primitive shell pairs kept                  ...     19573
          la=0 lb=0:   2569 shell pairs
          la=1 lb=0:   3481 shell pairs
          la=1 lb=1:   1212 shell pairs
          la=2 lb=0:    672 shell pairs
          la=2 lb=1:    471 shell pairs
          la=2 lb=2:     52 shell pairs

Calculating one electron integrals          ... done (  0.0 sec)
Calculating RI/J V-Matrix + Cholesky decomp.... done (  0.2 sec)
Calculating Nuclear repulsion               ... done (  0.0 sec) ENN=    653.064641981570 Eh

SHARK setup successfully completed in   0.9 seconds

Maximum memory used throughout the entire GTOINT-calculation: 17.2 MB


           ************************************************************
           *        Program running with 24 parallel MPI-processes    *
           *              working on a common directory               *
           ************************************************************
-------------------------------------------------------------------------------
                                 ORCA SCF
-------------------------------------------------------------------------------

------------
SCF SETTINGS
------------
Hamiltonian:
 Density Functional     Method          .... DFT(GTOs)
 Exchange Functional    Exchange        .... WB97X
 Correlation Functional Correlation     .... WB97X
 Gradients option       PostSCFGGA      .... off
 Hybrid DFT is turned on
   Fraction HF Exchange ScalHFX         ....  0.157706
   Scaling of DF-GGA-X  ScalDFX         ....  0.000000
   Scaling of DF-GGA-C  ScalDFC         ....  1.000000
   Scaling of DF-LDA-C  ScalLDAC        ....  1.000000
   Perturbative correction              ....  0.000000
   Density functional embedding theory  .... OFF
 Long-range corrected/Screened/Range-Separated Hybrid DFT is turned on
   Amount of maximum screened exact exchange              ....  0.842294
   Range separation parameter mu (erf(mu*r12)/r12)        ....  0.300000
 RI-approximation to the Coulomb term is turned on
   Number of AuxJ basis functions       .... 656
   RIJ-COSX (HFX calculated with COS-X)).... on


General Settings:
 Integral files         IntName         .... structure_opt
 Hartree-Fock type      HFTyp           .... RHF
 Total Charge           Charge          ....   -1
 Multiplicity           Mult            ....    1
 Number of Electrons    NEL             ....   98
 Basis Dimension        Dim             ....  314
 Nuclear Repulsion      ENuc            ....    653.0646419816 Eh

Convergence Acceleration:
 DIIS                   CNVDIIS         .... on
   Start iteration      DIISMaxIt       ....    12
   Startup error        DIISStart       ....  0.200000
   # of expansion vecs  DIISMaxEq       ....     5
   Bias factor          DIISBfac        ....   1.050
   Max. coefficient     DIISMaxC        ....  10.000
 Trust-Rad. Augm. Hess. CNVTRAH         .... auto
   Auto Start mean grad. ratio tolernc. ....  1.125000
   Auto Start start iteration           ....    20
   Auto Start num. interpolation iter.  ....    10
   Max. Number of Micro iterations      ....    16
   Max. Number of Macro iterations      .... Maxiter - #DIIS iter
   Number of Davidson start vectors     ....     2
   Converg. threshold I  (grad. norm)   ....   1.000e-05
   Converg. threshold II (energy diff.) ....   1.000e-08
   Grad. Scal. Fac. for Micro threshold ....   0.100
   Minimum threshold for Micro iter.    ....   0.010
   NR start threshold (gradient norm)   ....   0.001
   Initial trust radius                 ....   0.400
   Minimum AH scaling param. (alpha)    ....   1.000
   Maximum AH scaling param. (alpha)    .... 1000.000
   Orbital update algorithm             .... Taylor
   White noise on init. David. guess    .... on
   Maximum white noise                  ....   0.010
   Quad. conv. algorithm                .... NR
 SOSCF                  CNVSOSCF        .... on
   Start iteration      SOSCFMaxIt      ....   150
   Startup grad/error   SOSCFStart      ....  0.003300
 Level Shifting         CNVShift        .... on
   Level shift para.    LevelShift      ....    0.2500
   Turn off err/grad.   ShiftErr        ....    0.0010
 Zerner damping         CNVZerner       .... off
 Static damping         CNVDamp         .... on
   Fraction old density DampFac         ....    0.7000
   Max. Damping (<1)    DampMax         ....    0.9800
   Min. Damping (>=0)   DampMin         ....    0.0000
   Turn off err/grad.   DampErr         ....    0.1000
 Fernandez-Rico         CNVRico         .... off

SCF Procedure:
 Maximum # iterations   MaxIter         ....   125
 SCF integral mode      SCFMode         .... Direct
   Integral package                     .... SHARK and LIBINT hybrid scheme
 Reset frequency        DirectResetFreq ....    20
 Integral Threshold     Thresh          ....  2.500e-11 Eh
 Primitive CutOff       TCut            ....  2.500e-12 Eh

Convergence Tolerance:
 Convergence Check Mode ConvCheckMode   .... Total+1el-Energy
 Convergence forced     ConvForced      .... 0
 Energy Change          TolE            ....  1.000e-08 Eh
 1-El. energy change                    ....  1.000e-05 Eh
 Orbital Gradient       TolG            ....  1.000e-05
 Orbital Rotation angle TolX            ....  1.000e-05
 DIIS Error             TolErr          ....  5.000e-07


Diagonalization of the overlap matrix:
Smallest eigenvalue                        ... 4.383e-06
Time for diagonalization                   ...    0.015 sec
Threshold for overlap eigenvalues          ... 1.000e-08
Number of eigenvalues below threshold      ... 0
Time for construction of square roots      ...    0.018 sec
Total time needed                          ...    0.035 sec

Time for model grid setup =    0.187 sec

------------------------------
INITIAL GUESS: MODEL POTENTIAL
------------------------------
Loading Hartree-Fock densities                     ... done
Calculating cut-offs                               ... done
Initializing the effective Hamiltonian             ... done
Setting up the integral package (SHARK)            ... done
Starting the Coulomb interaction                   ... done (   0.1 sec)
Reading the grid                                   ... done
Mapping shells                                     ... done
Starting the XC term evaluation                    ... done (   0.0 sec)
  promolecular density results
     # of electrons  =     96.995190600
     EX              =    -96.552334801
     EC              =     -3.327213310
     EX+EC           =    -99.879548111
Transforming the Hamiltonian                       ... done (   0.0 sec)
Diagonalizing the Hamiltonian                      ... done (   0.0 sec)
Back transforming the eigenvectors                 ... done (   0.0 sec)
Now organizing SCF variables                       ... done
                      ------------------
                      INITIAL GUESS DONE (   0.4 sec)
                      ------------------
-------------------
DFT GRID GENERATION
-------------------

General Integration Accuracy     IntAcc      ... 4.388
Radial Grid Type                 RadialGrid  ... OptM3 with GC (2021)
Angular Grid (max. ang.)         AngularGrid ... 4 (Lebedev-302)
Angular grid pruning method      GridPruning ... 4 (adaptive)
Weight generation scheme         WeightScheme... Becke
Basis function cutoff            BFCut       ... 1.0000e-11
Integration weight cutoff        WCut        ... 1.0000e-14
Angular grids for H and He will be reduced by one unit
Partially contracted basis set               ... off
Rotationally invariant grid construction     ... off

Total number of grid points                  ...    98152
Total number of batches                      ...     1542
Average number of points per batch           ...       63
Average number of grid points per atom       ...     5453
Time for grid setup =    0.807 sec

--------------------
COSX GRID GENERATION
--------------------

GRIDX 1
-------
General Integration Accuracy     IntAcc      ... 3.816
Radial Grid Type                 RadialGrid  ... OptM3 with GC (2021)
Angular Grid (max. ang.)         AngularGrid ... 1 (Lebedev-50)
Angular grid pruning method      GridPruning ... 4 (adaptive)
Weight generation scheme         WeightScheme... Becke
Basis function cutoff            BFCut       ... 1.0000e-11
Integration weight cutoff        WCut        ... 1.0000e-14
Angular grids for H and He will be reduced by one unit
Partially contracted basis set               ... on
Rotationally invariant grid construction     ... off

Total number of grid points                  ...    12266
Total number of batches                      ...      203
Average number of points per batch           ...       60
Average number of grid points per atom       ...      681
UseSFitting                                  ... on

GRIDX 2
-------
General Integration Accuracy     IntAcc      ... 4.020
Radial Grid Type                 RadialGrid  ... OptM3 with GC (2021)
Angular Grid (max. ang.)         AngularGrid ... 2 (Lebedev-110)
Angular grid pruning method      GridPruning ... 4 (adaptive)
Weight generation scheme         WeightScheme... Becke
Basis function cutoff            BFCut       ... 1.0000e-11
Integration weight cutoff        WCut        ... 1.0000e-14
Angular grids for H and He will be reduced by one unit
Partially contracted basis set               ... on
Rotationally invariant grid construction     ... off

Total number of grid points                  ...    31206
Total number of batches                      ...      495
Average number of points per batch           ...       63
Average number of grid points per atom       ...     1734
UseSFitting                                  ... on

GRIDX 3
-------
General Integration Accuracy     IntAcc      ... 4.338
Radial Grid Type                 RadialGrid  ... OptM3 with GC (2021)
Angular Grid (max. ang.)         AngularGrid ... 3 (Lebedev-194)
Angular grid pruning method      GridPruning ... 4 (adaptive)
Weight generation scheme         WeightScheme... Becke
Basis function cutoff            BFCut       ... 1.0000e-11
Integration weight cutoff        WCut        ... 1.0000e-14
Angular grids for H and He will be reduced by one unit
Partially contracted basis set               ... on
Rotationally invariant grid construction     ... off

Total number of grid points                  ...    69427
Total number of batches                      ...     1092
Average number of points per batch           ...       63
Average number of grid points per atom       ...     3857
UseSFitting                                  ... on

Time for X-Grid setup             =    1.272 sec


--------------------
CPCM SOLVATION MODEL
--------------------
CPCM parameters:
  Epsilon                                         ...      78.3550
  Refrac                                          ...       1.3328
  Rsolv                                           ...       1.3000
  Surface type                                    ... GAUSSIAN VDW
  Epsilon function type                           ...         CPCM
Solvent:                                     ... WATER
SMD-CDS solvent descriptors:
  Soln                                       ...    1.3328
  Soln25                                     ...    1.3323
  Sola                                       ...    0.0000
  Solb                                       ...    0.0000
  Solg                                       ...    0.0000
  Solc                                       ...    0.0000
  Solh                                       ...    0.0000
Radii:
 Radius for C  used is    3.4960 Bohr (=   1.8500 Ang.)
 Radius for N  used is    3.5716 Bohr (=   1.8900 Ang.)
 Radius for O  used is    2.8724 Bohr (=   1.5200 Ang.)
 Radius for F  used is    3.2692 Bohr (=   1.7300 Ang.)
 Radius for H  used is    2.2677 Bohr (=   1.2000 Ang.)
 Radius for S  used is    4.7054 Bohr (=   2.4900 Ang.)
Calculating surface                               ...        done! (  0.0s)
GEPOL surface points                              ...         1156
GEPOL Volume                                      ...    1372.2608
GEPOL Surface-area                                ...     850.4001
Calculating surface distance matrix               ...        done! (  0.0s)
Performing Cholesky decomposition & store         ...        done! (  0.1s)
Overall time for CPCM initialization              ...                 0.1s
--------------
SCF ITERATIONS
--------------
ITER       Energy         Delta-E        Max-DP      RMS-DP      [F,P]     Damp
               ***  Starting incremental Fock matrix formation  ***
  0   -989.8658655229   0.000000000000 0.33662170  0.00322274  0.2373493 0.7000
  1   -990.0281030955  -0.162237572593 0.24474714  0.00245484  0.1167507 0.7000
                               ***Turning on DIIS***
  2   -990.1005541059  -0.072451010377 1.58904554  0.00917438  0.0611014 0.0000
  3   -990.2246182530  -0.124064147111 0.77647870  0.00406006  0.0550189 0.0000
  4   -990.2437611510  -0.019142897973 0.28487309  0.00149663  0.0124292 0.0000
  5   -990.2449356958  -0.001174544817 0.14228287  0.00076549  0.0061327 0.0000
                      *** Initiating the SOSCF procedure ***
                           *** Shutting down DIIS ***
                      *** Re-Reading the Fockian *** 
                      *** Removing any level shift *** 
ITER      Energy       Delta-E        Grad      Rot      Max-DP    RMS-DP
  6   -990.24516691  -0.0002312145  0.001495  0.001495  0.043425  0.000251
               *** Restarting incremental Fock matrix formation ***
  7   -990.24525666  -0.0000897532  0.000979  0.002403  0.011076  0.000172
  8   -990.24529790  -0.0000412403  0.000390  0.002892  0.009541  0.000153
  9   -990.24530406  -0.0000061543  0.000703  0.000744  0.005488  0.000084
 10   -990.24531124  -0.0000071857  0.000116  0.000218  0.003334  0.000026
 11   -990.24531130  -0.0000000603  0.000093  0.000126  0.003268  0.000018
 12   -990.24531168  -0.0000003714  0.000014  0.000040  0.004547  0.000027
 13   -990.24531168  -0.0000000024  0.000007  0.000031  0.004436  0.000033
 14   -990.24531168  -0.0000000040  0.000005  0.000013  0.003349  0.000021
                  ***Gradient check signals convergence***
              ***Rediagonalizing the Fockian in SOSCF/NRSCF***

               *****************************************************
               *                     SUCCESS                       *
               *           SCF CONVERGED AFTER  15 CYCLES          *
               *****************************************************

Old exchange energy                            =    -28.432770117 Eh
New exchange energy                            =    -28.432778648 Eh
Exchange energy change after final integration =     -0.000008531 Eh
Total energy after final integration           =   -990.245320215 Eh
Final COS-X integration done in                =     3.177 sec

SMD CDS free energy correction energy :                 5.87270     Kcal/mol
Total Energy after SMD CDS correction =              -990.235961473 Eh

----------------
TOTAL SCF ENERGY
----------------

Total Energy       :         -990.23596147 Eh          -26945.69040 eV

Components:
Nuclear Repulsion  :          653.06464198 Eh           17770.79236 eV
Electronic Energy  :        -1643.30060345 Eh          -44716.48276 eV
One Electron Energy:        -2664.52400102 Eh          -72505.38417 eV
Two Electron Energy:         1021.22339756 Eh           27788.90141 eV
Max COSX asymmetry :            0.00000225 Eh               0.00006 eV
CPCM Dielectric    :           -0.13645165 Eh              -3.71304 eV
SMD CDS (Gcds)     :            0.00935874 Eh               0.25466 eV

Virial components:
Potential Energy   :        -1977.46988870 Eh          -53809.69130 eV
Kinetic Energy     :          987.23392723 Eh           26864.00090 eV
Virial Ratio       :            2.00304085


DFT components:
N(Alpha)           :       48.999789086869 electrons
N(Beta)            :       48.999789086869 electrons
N(Total)           :       97.999578173738 electrons
E(XC)              :      -73.338371729650 Eh       
DFET-embed. en.    :        0.000000000000 Eh       
CPCM Solvation Model Properties:
Surface-charge          :            0.94304864
Charge-correction       :           -0.00531079 Eh              -0.14451 eV
Free-energy (cav+disp)  :            0.00935874 Eh               0.25466 eV

---------------
SCF CONVERGENCE
---------------

  Last Energy change         ...   -1.3890e-09  Tolerance :   1.0000e-08
  Last MAX-Density change    ...    7.1054e-15  Tolerance :   1.0000e-07
  Last RMS-Density change    ...    5.3317e-17  Tolerance :   5.0000e-09
  Last Orbital Gradient      ...    1.9475e-06  Tolerance :   1.0000e-05
  Last Orbital Rotation      ...    1.8458e-06  Tolerance :   1.0000e-05

             **** THE GBW FILE WAS UPDATED (structure_opt.gbw) ****
             **** DENSITY structure_opt.scfp WAS UPDATED ****
             **** ENERGY FILE WAS UPDATED (structure_opt.en.tmp) ****
             **** THE GBW FILE WAS UPDATED (structure_opt.gbw) ****
             **** DENSITY structure_opt.scfp WAS UPDATED ****
----------------
ORBITAL ENERGIES
----------------

  NO   OCC          E(Eh)            E(eV) 
   0   2.0000     -88.720119     -2414.1972 
   1   2.0000     -24.793460      -674.6643 
   2   2.0000     -19.275789      -524.5209 
   3   2.0000     -19.244096      -523.6585 
   4   2.0000     -14.670006      -399.1912 
   5   2.0000     -14.435760      -392.8170 
   6   2.0000     -10.437893      -284.0295 
   7   2.0000     -10.364364      -282.0287 
   8   2.0000     -10.338430      -281.3230 
   9   2.0000     -10.321413      -280.8599 
  10   2.0000     -10.290735      -280.0251 
  11   2.0000     -10.235890      -278.5327 
  12   2.0000      -7.916012      -215.4056 
  13   2.0000      -5.879155      -159.9800 
  14   2.0000      -5.871764      -159.7788 
  15   2.0000      -5.871761      -159.7787 
  16   2.0000      -1.396495       -38.0006 
  17   2.0000      -1.348406       -36.6920 
  18   2.0000      -1.151671       -31.3386 
  19   2.0000      -1.109487       -30.1907 
  20   2.0000      -1.008622       -27.4460 
  21   2.0000      -0.943634       -25.6776 
  22   2.0000      -0.874209       -23.7884 
  23   2.0000      -0.836239       -22.7552 
  24   2.0000      -0.796870       -21.6839 
  25   2.0000      -0.769387       -20.9361 
  26   2.0000      -0.706174       -19.2160 
  27   2.0000      -0.686739       -18.6871 
  28   2.0000      -0.669591       -18.2205 
  29   2.0000      -0.665192       -18.1008 
  30   2.0000      -0.661912       -18.0116 
  31   2.0000      -0.633452       -17.2371 
  32   2.0000      -0.620508       -16.8849 
  33   2.0000      -0.615469       -16.7478 
  34   2.0000      -0.563986       -15.3469 
  35   2.0000      -0.537336       -14.6217 
  36   2.0000      -0.528155       -14.3718 
  37   2.0000      -0.528135       -14.3713 
  38   2.0000      -0.494582       -13.4583 
  39   2.0000      -0.494055       -13.4439 
  40   2.0000      -0.456271       -12.4158 
  41   2.0000      -0.432665       -11.7734 
  42   2.0000      -0.421837       -11.4788 
  43   2.0000      -0.416670       -11.3382 
  44   2.0000      -0.408242       -11.1088 
  45   2.0000      -0.390796       -10.6341 
  46   2.0000      -0.385149       -10.4804 
  47   2.0000      -0.258956        -7.0466 
  48   2.0000      -0.258908        -7.0452 
  49   0.0000      -0.064956        -1.7675 
  50   0.0000       0.022469         0.6114 
  51   0.0000       0.054701         1.4885 
  52   0.0000       0.055377         1.5069 
  53   0.0000       0.057072         1.5530 
  54   0.0000       0.067921         1.8482 
  55   0.0000       0.072601         1.9756 
  56   0.0000       0.086119         2.3434 
  57   0.0000       0.090459         2.4615 
  58   0.0000       0.090549         2.4640 
  59   0.0000       0.100557         2.7363 
  60   0.0000       0.113636         3.0922 
  61   0.0000       0.115459         3.1418 
  62   0.0000       0.125765         3.4222 
  63   0.0000       0.129174         3.5150 
  64   0.0000       0.130645         3.5550 
  65   0.0000       0.140823         3.8320 
  66   0.0000       0.142599         3.8803 
  67   0.0000       0.153956         4.1894 
  68   0.0000       0.160693         4.3727 
  69   0.0000       0.164185         4.4677 
  70   0.0000       0.167900         4.5688 
  71   0.0000       0.170302         4.6342 
  72   0.0000       0.172714         4.6998 
  73   0.0000       0.178129         4.8471 
  74   0.0000       0.179793         4.8924 
  75   0.0000       0.181303         4.9335 
  76   0.0000       0.191067         5.1992 
  77   0.0000       0.192184         5.2296 
  78   0.0000       0.197551         5.3756 
  79   0.0000       0.199878         5.4390 
  80   0.0000       0.203608         5.5405 
  81   0.0000       0.210617         5.7312 
  82   0.0000       0.220439         5.9984 
  83   0.0000       0.222117         6.0441 
  84   0.0000       0.233395         6.3510 
  85   0.0000       0.237030         6.4499 
  86   0.0000       0.247676         6.7396 
  87   0.0000       0.253917         6.9094 
  88   0.0000       0.260764         7.0957 
  89   0.0000       0.266907         7.2629 
  90   0.0000       0.270926         7.3723 
  91   0.0000       0.273656         7.4466 
  92   0.0000       0.278139         7.5686 
  93   0.0000       0.278280         7.5724 
  94   0.0000       0.282097         7.6763 
  95   0.0000       0.295547         8.0422 
  96   0.0000       0.304135         8.2759 
  97   0.0000       0.312452         8.5022 
  98   0.0000       0.313768         8.5381 
  99   0.0000       0.321149         8.7389 
 100   0.0000       0.327783         8.9194 
 101   0.0000       0.337069         9.1721 
 102   0.0000       0.349239         9.5033 
 103   0.0000       0.349426         9.5084 
 104   0.0000       0.360757         9.8167 
 105   0.0000       0.362784         9.8719 
 106   0.0000       0.369642        10.0585 
 107   0.0000       0.372732        10.1425 
 108   0.0000       0.396643        10.7932 
 109   0.0000       0.404090        10.9958 
 110   0.0000       0.408315        11.1108 
 111   0.0000       0.410898        11.1811 
 112   0.0000       0.420255        11.4357 
 113   0.0000       0.427589        11.6353 
 114   0.0000       0.438505        11.9323 
 115   0.0000       0.450148        12.2491 
 116   0.0000       0.452631        12.3167 
 117   0.0000       0.457912        12.4604 
 118   0.0000       0.464776        12.6472 
 119   0.0000       0.480580        13.0772 
 120   0.0000       0.491272        13.3682 
 121   0.0000       0.502684        13.6787 
 122   0.0000       0.518618        14.1123 
 123   0.0000       0.527285        14.3482 
 124   0.0000       0.527804        14.3623 
 125   0.0000       0.548559        14.9270 
 126   0.0000       0.581904        15.8344 
 127   0.0000       0.609990        16.5987 
 128   0.0000       0.612493        16.6668 
 129   0.0000       0.618638        16.8340 
 130   0.0000       0.624813        17.0020 
 131   0.0000       0.638046        17.3621 
 132   0.0000       0.650501        17.7010 
 133   0.0000       0.657708        17.8971 
 134   0.0000       0.667852        18.1732 
 135   0.0000       0.700858        19.0713 
 136   0.0000       0.701478        19.0882 
 137   0.0000       0.726045        19.7567 
 138   0.0000       0.743654        20.2359 
 139   0.0000       0.770593        20.9689 
 140   0.0000       0.770863        20.9762 
 141   0.0000       0.778183        21.1754 
 142   0.0000       0.810815        22.0634 
 143   0.0000       0.825999        22.4766 
 144   0.0000       0.835331        22.7305 
 145   0.0000       0.848617        23.0920 
 146   0.0000       0.850345        23.1391 
 147   0.0000       0.871034        23.7021 
 148   0.0000       0.897615        24.4253 
 149   0.0000       0.909309        24.7435 
 150   0.0000       0.918895        25.0044 
 151   0.0000       0.933167        25.3928 
 152   0.0000       0.953516        25.9465 
 153   0.0000       0.953922        25.9575 
 154   0.0000       0.960038        26.1240 
 155   0.0000       0.972149        26.4535 
 156   0.0000       0.975333        26.5402 
 157   0.0000       0.985090        26.8057 
 158   0.0000       1.002362        27.2756 
 159   0.0000       1.004253        27.3271 
 160   0.0000       1.004279        27.3278 
 161   0.0000       1.033851        28.1325 
 162   0.0000       1.043250        28.3883 
 163   0.0000       1.061559        28.8865 
 164   0.0000       1.074052        29.2264 
 165   0.0000       1.079752        29.3815 
 166   0.0000       1.083447        29.4821 
 167   0.0000       1.139940        31.0193 
 168   0.0000       1.144710        31.1491 
 169   0.0000       1.151753        31.3408 
 170   0.0000       1.172461        31.9043 
 171   0.0000       1.183946        32.2168 
 172   0.0000       1.198343        32.6086 
 173   0.0000       1.210199        32.9312 
 174   0.0000       1.249327        33.9959 
 175   0.0000       1.260221        34.2924 
 176   0.0000       1.276927        34.7469 
 177   0.0000       1.278515        34.7902 
 178   0.0000       1.279071        34.8053 
 179   0.0000       1.292591        35.1732 
 180   0.0000       1.297922        35.3182 
 181   0.0000       1.356378        36.9089 
 182   0.0000       1.394341        37.9419 
 183   0.0000       1.405112        38.2351 
 184   0.0000       1.471030        40.0288 
 185   0.0000       1.506579        40.9961 
 186   0.0000       1.551722        42.2245 
 187   0.0000       1.586632        43.1745 
 188   0.0000       1.589809        43.2609 
 189   0.0000       1.589825        43.2613 
 190   0.0000       1.617141        44.0046 
 191   0.0000       1.631505        44.3955 
 192   0.0000       1.654924        45.0328 
 193   0.0000       1.656903        45.0866 
 194   0.0000       1.692473        46.0545 
 195   0.0000       1.692730        46.0615 
 196   0.0000       1.703590        46.3570 
 197   0.0000       1.715202        46.6730 
 198   0.0000       1.748610        47.5821 
 199   0.0000       1.760962        47.9182 
 200   0.0000       1.786759        48.6202 
 201   0.0000       1.808976        49.2248 
 202   0.0000       1.809347        49.2348 
 203   0.0000       1.812286        49.3148 
 204   0.0000       1.841094        50.0987 
 205   0.0000       1.843385        50.1611 
 206   0.0000       1.868943        50.8565 
 207   0.0000       1.910075        51.9758 
 208   0.0000       1.933727        52.6194 
 209   0.0000       1.946744        52.9736 
 210   0.0000       1.968972        53.5784 
 211   0.0000       1.969681        53.5977 
 212   0.0000       1.990551        54.1656 
 213   0.0000       2.010828        54.7174 
 214   0.0000       2.031776        55.2874 
 215   0.0000       2.045128        55.6507 
 216   0.0000       2.049228        55.7623 
 217   0.0000       2.109976        57.4154 
 218   0.0000       2.140510        58.2462 
 219   0.0000       2.147568        58.4383 
 220   0.0000       2.167749        58.9875 
 221   0.0000       2.172785        59.1245 
 222   0.0000       2.176115        59.2151 
 223   0.0000       2.205593        60.0172 
 224   0.0000       2.292484        62.3817 
 225   0.0000       2.323680        63.2306 
 226   0.0000       2.332039        63.4580 
 227   0.0000       2.332680        63.4754 
 228   0.0000       2.398957        65.2789 
 229   0.0000       2.429141        66.1003 
 230   0.0000       2.493366        67.8479 
 231   0.0000       2.563350        69.7523 
 232   0.0000       2.587999        70.4230 
 233   0.0000       2.595387        70.6241 
 234   0.0000       2.604321        70.8672 
 235   0.0000       2.626958        71.4832 
 236   0.0000       2.657832        72.3233 
 237   0.0000       2.659206        72.3607 
 238   0.0000       2.673598        72.7523 
 239   0.0000       2.674140        72.7670 
 240   0.0000       2.691924        73.2510 
 241   0.0000       2.766398        75.2775 
 242   0.0000       2.784792        75.7780 
 243   0.0000       2.828725        76.9735 
 244   0.0000       2.839634        77.2704 
 245   0.0000       2.858012        77.7705 
 246   0.0000       2.867299        78.0232 
 247   0.0000       2.882805        78.4451 
 248   0.0000       2.893773        78.7436 
 249   0.0000       2.901392        78.9509 
 250   0.0000       2.931098        79.7592 
 251   0.0000       2.937098        79.9225 
 252   0.0000       2.959921        80.5435 
 253   0.0000       2.976397        80.9919 
 254   0.0000       2.986461        81.2657 
 255   0.0000       3.001344        81.6707 
 256   0.0000       3.007056        81.8261 
 257   0.0000       3.097518        84.2878 
 258   0.0000       3.152665        85.7884 
 259   0.0000       3.188487        86.7631 
 260   0.0000       3.268416        88.9381 
 261   0.0000       3.307244        89.9947 
 262   0.0000       3.307623        90.0050 
 263   0.0000       3.337345        90.8138 
 264   0.0000       3.367975        91.6473 
 265   0.0000       3.454067        93.9900 
 266   0.0000       3.496714        95.1504 
 267   0.0000       3.558321        96.8268 
 268   0.0000       3.592969        97.7697 
 269   0.0000       3.680647       100.1555 
 270   0.0000       3.703463       100.7764 
 271   0.0000       3.753074       102.1263 
 272   0.0000       3.853279       104.8530 
 273   0.0000       3.883151       105.6659 
 274   0.0000       3.888714       105.8173 
 275   0.0000       3.891779       105.9007 
 276   0.0000       3.902770       106.1998 
 277   0.0000       3.924252       106.7843 
 278   0.0000       4.012602       109.1884 
 279   0.0000       4.059419       110.4624 
 280   0.0000       4.119795       112.1053 
 281   0.0000       4.143531       112.7512 
 282   0.0000       4.168945       113.4428 
 283   0.0000       4.405401       119.8771 
 284   0.0000       4.477677       121.8438 
 285   0.0000       4.503412       122.5441 
 286   0.0000       4.760299       129.5343 
 287   0.0000       4.943237       134.5123 
 288   0.0000       5.071829       138.0115 
 289   0.0000       5.100083       138.7803 
 290   0.0000       5.191512       141.2682 
 291   0.0000       5.219504       142.0299 
 292   0.0000       5.314529       144.6157 
 293   0.0000       5.698487       155.0637 
 294   0.0000       6.129809       166.8006 
 295   0.0000       6.407896       174.3677 
 296   0.0000       6.538743       177.9282 
 297   0.0000       6.844455       186.2471 
 298   0.0000       7.976274       217.0455 
 299   0.0000      17.544725       477.4162 
 300   0.0000      17.545161       477.4281 
 301   0.0000      17.631187       479.7690 
 302   0.0000      23.648754       643.5153 
 303   0.0000      23.890095       650.0825 
 304   0.0000      23.983908       652.6353 
 305   0.0000      24.029967       653.8886 
 306   0.0000      24.070866       655.0016 
 307   0.0000      24.181007       657.9987 
 308   0.0000      35.374880       962.5994 
 309   0.0000      35.656783       970.2704 
 310   0.0000      49.899166      1357.8253 
 311   0.0000      49.963258      1359.5694 
 312   0.0000      66.792534      1817.5173 
 313   0.0000     188.965120      5142.0023 

--------------------
FRAGMENT INFORMATION
--------------------
Fragment  1:    0   1   2   3   4   5 
Fragment  2:    6   7   8   9  10  11  12 
Fragment  3:   13  14  15  16 
Fragment  4:   17 


                    ********************************
                    * MULLIKEN POPULATION ANALYSIS *
                    ********************************

-------------------------
MULLIKEN FRAGMENT CHARGES
-------------------------
 Fragment   0 :  -0.444754
 Fragment   1 :   0.444657
 Fragment   2 :  -0.029676
 Fragment   3 :  -0.970228
Sum of fragment charges:   -1.0000000

---------------------------------
MULLIKEN FRAGMENT OVERLAP CHARGES
---------------------------------
                  0          1          2          3    
      0      20.962860   0.631664  -0.000022  -0.000009
      1       0.631664  34.970722   0.000002  -0.000023
      2      -0.000022   0.000002  11.657658  -0.693723
      3      -0.000009  -0.000023  -0.693723  17.317105

-----------------------
MULLIKEN ATOMIC CHARGES
-----------------------
   0 C :   -0.032164
   1 N :   -0.204077
   2 C :   -0.291658
   3 C :   -0.268461
   4 C :    0.452074
   5 C :   -0.100467
   6 N :   -0.063424
   7 O :   -0.055641
   8 O :   -0.238059
   9 F :   -0.102146
  10 H :    0.296597
  11 H :    0.280894
  12 H :    0.326436
  13 C :   -0.409971
  14 H :    0.126733
  15 H :    0.126460
  16 H :    0.127103
  17 S :   -0.970228
Sum of atomic charges:   -1.0000000

--------------------------------
MULLIKEN REDUCED ORBITAL CHARGES
--------------------------------
  0 C s       :     3.270465  s :     3.270465
      pz      :     0.682521  p :     2.601233
      px      :     0.976165
      py      :     0.942546
      dz2     :     0.052757  d :     0.160466
      dxz     :     0.048847
      dyz     :     0.028448
      dx2y2   :     0.013770
      dxy     :     0.016644
  1 N s       :     3.625873  s :     3.625873
      pz      :     1.142288  p :     3.547677
      px      :     1.241422
      py      :     1.163967
      dz2     :     0.008167  d :     0.030528
      dxz     :     0.007239
      dyz     :     0.004757
      dx2y2   :     0.005505
      dxy     :     0.004859
  2 C s       :     3.373654  s :     3.373654
      pz      :     0.812468  p :     2.833856
      px      :     1.168359
      py      :     0.853029
      dz2     :     0.023580  d :     0.084148
      dxz     :     0.032197
      dyz     :     0.014802
      dx2y2   :     0.007221
      dxy     :     0.006348
  3 C s       :     3.217720  s :     3.217720
      pz      :     1.159935  p :     2.997581
      px      :     0.870455
      py      :     0.967190
      dz2     :     0.015294  d :     0.053161
      dxz     :     0.017413
      dyz     :     0.005092
      dx2y2   :     0.008213
      dxy     :     0.007148
  4 C s       :     2.496919  s :     2.496919
      pz      :     0.900451  p :     2.993912
      px      :     1.246157
      py      :     0.847304
      dz2     :     0.016547  d :     0.057094
      dxz     :     0.015857
      dyz     :     0.010570
      dx2y2   :     0.007215
      dxy     :     0.006905
  5 C s       :     3.316210  s :     3.316210
      pz      :     1.102196  p :     2.711114
      px      :     0.485386
      py      :     1.123532
      dz2     :     0.013629  d :     0.073143
      dxz     :     0.029767
      dyz     :     0.010341
      dx2y2   :     0.011216
      dxy     :     0.008191
  6 N s       :     3.586972  s :     3.586972
      pz      :     1.053982  p :     3.367456
      px      :     1.211379
      py      :     1.102094
      dz2     :     0.027718  d :     0.108996
      dxz     :     0.039366
      dyz     :     0.023078
      dx2y2   :     0.008551
      dxy     :     0.010284
  7 O s       :     3.781778  s :     3.781778
      pz      :     1.026571  p :     4.255162
      px      :     1.828336
      py      :     1.400255
      dz2     :     0.009710  d :     0.018701
      dxz     :     0.003513
      dyz     :     0.005308
      dx2y2   :     0.000102
      dxy     :     0.000067
  8 O s       :     3.824374  s :     3.824374
      pz      :     1.624632  p :     4.401570
      px      :     1.218261
      py      :     1.558676
      dz2     :     0.001058  d :     0.012115
      dxz     :     0.004900
      dyz     :     0.000879
      dx2y2   :     0.003118
      dxy     :     0.002159
  9 F s       :     3.918259  s :     3.918259
      pz      :     1.388666  p :     5.178554
      px      :     1.915822
      py      :     1.874065
      dz2     :     0.003098  d :     0.005333
      dxz     :     0.000998
      dyz     :     0.001202
      dx2y2   :     0.000027
      dxy     :     0.000009
 10 H s       :     0.679504  s :     0.679504
      pz      :     0.005481  p :     0.023899
      px      :     0.014121
      py      :     0.004297
 11 H s       :     0.694144  s :     0.694144
      pz      :     0.016373  p :     0.024963
      px      :     0.003655
      py      :     0.004935
 12 H s       :     0.648044  s :     0.648044
      pz      :     0.007742  p :     0.025520
      px      :     0.013378
      py      :     0.004401
 13 C s       :     3.269708  s :     3.269708
      pz      :     1.027837  p :     3.087636
      px      :     1.054514
      py      :     1.005284
      dz2     :     0.013239  d :     0.052627
      dxz     :     0.007502
      dyz     :     0.010044
      dx2y2   :     0.015227
      dxy     :     0.006615
 14 H s       :     0.850558  s :     0.850558
      pz      :     0.011789  p :     0.022709
      px      :     0.006181
      py      :     0.004739
 15 H s       :     0.850783  s :     0.850783
      pz      :     0.004788  p :     0.022757
      px      :     0.013283
      py      :     0.004686
 16 H s       :     0.850159  s :     0.850159
      pz      :     0.006066  p :     0.022738
      px      :     0.005552
      py      :     0.011120
 17 S s       :     6.022199  s :     6.022199
      pz      :     3.625016  p :    10.916592
      px      :     3.928933
      py      :     3.362643
      dz2     :     0.003171  d :     0.031437
      dxz     :     0.002838
      dyz     :     0.014223
      dx2y2   :     0.006575
      dxy     :     0.004629


                     *******************************
                     * LOEWDIN POPULATION ANALYSIS *
                     *******************************

------------------------
LOEWDIN FRAGMENT CHARGES
------------------------
 Fragment   0 :   0.057696
 Fragment   1 :  -0.057702
 Fragment   2 :  -0.355516
 Fragment   3 :  -0.644478

----------------------------
LOEWDIN FRAGMENT BOND ORDERS
----------------------------
                  0          1          2          3    
      0      56.960988   6.778855   0.000007   0.000042
      1       6.778855  43.787696   0.000002   0.000018
      2       0.000007   0.000002  15.419912   1.742601
      3       0.000042   0.000018   1.742601  16.644478

----------------------
LOEWDIN ATOMIC CHARGES
----------------------
   0 C :    0.111533
   1 N :   -0.111778
   2 C :    0.077389
   3 C :   -0.033829
   4 C :    0.078063
   5 C :   -0.063683
   6 N :    0.241437
   7 O :   -0.153863
   8 O :   -0.338995
   9 F :   -0.078041
  10 H :    0.087035
  11 H :    0.084555
  12 H :    0.100170
  13 C :   -0.358886
  14 H :    0.001305
  15 H :    0.000975
  16 H :    0.001091
  17 S :   -0.644478

-------------------------------
LOEWDIN REDUCED ORBITAL CHARGES
-------------------------------
  0 C s       :     2.743713  s :     2.743713
      pz      :     0.849386  p :     2.815624
      px      :     1.080460
      py      :     0.885779
      dz2     :     0.112514  d :     0.329130
      dxz     :     0.100724
      dyz     :     0.050395
      dx2y2   :     0.033876
      dxy     :     0.031620
  1 N s       :     3.151627  s :     3.151627
      pz      :     1.301199  p :     3.903312
      px      :     1.416889
      py      :     1.185224
      dz2     :     0.017389  d :     0.056839
      dxz     :     0.015719
      dyz     :     0.007789
      dx2y2   :     0.009544
      dxy     :     0.006398
  2 C s       :     2.786888  s :     2.786888
      pz      :     1.032885  p :     2.953879
      px      :     1.096540
      py      :     0.824454
      dz2     :     0.060302  d :     0.181844
      dxz     :     0.069058
      dyz     :     0.027980
      dx2y2   :     0.014015
      dxy     :     0.010489
  3 C s       :     2.781246  s :     2.781246
      pz      :     1.081334  p :     3.128224
      px      :     1.092131
      py      :     0.954760
      dz2     :     0.034119  d :     0.124358
      dxz     :     0.045069
      dyz     :     0.008010
      dx2y2   :     0.022212
      dxy     :     0.014948
  4 C s       :     2.779225  s :     2.779225
      pz      :     1.065820  p :     3.014416
      px      :     1.108249
      py      :     0.840347
      dz2     :     0.040905  d :     0.128296
      dxz     :     0.039165
      dyz     :     0.021254
      dx2y2   :     0.015049
      dxy     :     0.011924
  5 C s       :     2.757961  s :     2.757961
      pz      :     1.088441  p :     3.125399
      px      :     0.957250
      py      :     1.079708
      dz2     :     0.039911  d :     0.180324
      dxz     :     0.071776
      dyz     :     0.019834
      dx2y2   :     0.031418
      dxy     :     0.017385
  6 N s       :     3.052049  s :     3.052049
      pz      :     1.205977  p :     3.500152
      px      :     1.215034
      py      :     1.079141
      dz2     :     0.060434  d :     0.206361
      dxz     :     0.076199
      dyz     :     0.035694
      dx2y2   :     0.017514
      dxy     :     0.016521
  7 O s       :     3.581247  s :     3.581247
      pz      :     1.283673  p :     4.540299
      px      :     1.838813
      py      :     1.417813
      dz2     :     0.020439  d :     0.032317
      dxz     :     0.005158
      dyz     :     0.006530
      dx2y2   :     0.000119
      dxy     :     0.000071
  8 O s       :     3.667379  s :     3.667379
      pz      :     1.709910  p :     4.651135
      px      :     1.369849
      py      :     1.571376
      dz2     :     0.001545  d :     0.020482
      dxz     :     0.009263
      dyz     :     0.001173
      dx2y2   :     0.005711
      dxy     :     0.002790
  9 F s       :     3.714993  s :     3.714993
      pz      :     1.535113  p :     5.355677
      px      :     1.934337
      py      :     1.886226
      dz2     :     0.004767  d :     0.007371
      dxz     :     0.001184
      dyz     :     0.001375
      dx2y2   :     0.000037
      dxy     :     0.000009
 10 H s       :     0.842564  s :     0.842564
      pz      :     0.016676  p :     0.070401
      px      :     0.042298
      py      :     0.011427
 11 H s       :     0.842994  s :     0.842994
      pz      :     0.047834  p :     0.072450
      px      :     0.011210
      py      :     0.013406
 12 H s       :     0.826601  s :     0.826601
      pz      :     0.023098  p :     0.073229
      px      :     0.038713
      py      :     0.011417
 13 C s       :     2.858097  s :     2.858097
      pz      :     1.131720  p :     3.393854
      px      :     1.120544
      py      :     1.141590
      dz2     :     0.026152  d :     0.106935
      dxz     :     0.014574
      dyz     :     0.022125
      dx2y2   :     0.030997
      dxy     :     0.013088
 14 H s       :     0.927001  s :     0.927001
      pz      :     0.038669  p :     0.071695
      px      :     0.018574
      py      :     0.014452
 15 H s       :     0.927176  s :     0.927176
      pz      :     0.014429  p :     0.071849
      px      :     0.043025
      py      :     0.014395
 16 H s       :     0.927052  s :     0.927052
      pz      :     0.018419  p :     0.071857
      px      :     0.016499
      py      :     0.036940
 17 S s       :     5.613952  s :     5.613952
      pz      :     3.654270  p :    10.993383
      px      :     3.885571
      py      :     3.453541
      dz2     :     0.003557  d :     0.037143
      dxz     :     0.003299
      dyz     :     0.017117
      dx2y2   :     0.007780
      dxy     :     0.005391


                      *****************************
                      * MAYER POPULATION ANALYSIS *
                      *****************************

  NA   - Mulliken gross atomic population
  ZA   - Total nuclear charge
  QA   - Mulliken gross atomic charge
  VA   - Mayer's total valence
  BVA  - Mayer's bonded valence
  FA   - Mayer's free valence

  ATOM       NA         ZA         QA         VA         BVA        FA
  0 C      6.0322     6.0000    -0.0322     4.3519     4.3519     0.0000
  1 N      7.2041     7.0000    -0.2041     2.7017     2.7017    -0.0000
  2 C      6.2917     6.0000    -0.2917     3.9795     3.9795     0.0000
  3 C      6.2685     6.0000    -0.2685     4.3637     4.3637     0.0000
  4 C      5.5479     6.0000     0.4521     4.1071     4.1071    -0.0000
  5 C      6.1005     6.0000    -0.1005     3.3689     3.3689     0.0000
  6 N      7.0634     7.0000    -0.0634     3.9042     3.9042     0.0000
  7 O      8.0556     8.0000    -0.0556     2.1992     2.1992    -0.0000
  8 O      8.2381     8.0000    -0.2381     1.9969     1.9969     0.0000
  9 F      9.1021     9.0000    -0.1021     0.9620     0.9620    -0.0000
 10 H      0.7034     1.0000     0.2966     0.8707     0.8707    -0.0000
 11 H      0.7191     1.0000     0.2809     0.9040     0.9040     0.0000
 12 H      0.6736     1.0000     0.3264     0.8333     0.8333     0.0000
 13 C      6.4100     6.0000    -0.4100     3.5643     3.5643     0.0000
 14 H      0.8733     1.0000     0.1267     0.9426     0.9426    -0.0000
 15 H      0.8735     1.0000     0.1265     0.9428     0.9428     0.0000
 16 H      0.8729     1.0000     0.1271     0.9424     0.9424     0.0000
 17 S     16.9702    16.0000    -0.9702     0.5883     0.5883     0.0000

  Mayer bond orders larger than 0.100000
B(  0-C ,  1-N ) :   1.3000 B(  0-C ,  2-C ) :   0.1919 B(  0-C ,  3-C ) :   0.1559 
B(  0-C ,  4-C ) :   0.2945 B(  0-C ,  5-C ) :   1.2164 B(  0-C ,  6-N ) :  -0.1852 
B(  0-C ,  9-F ) :   1.3916 B(  1-N ,  2-C ) :   1.1808 B(  1-N ,  5-C ) :   0.1733 
B(  2-C ,  3-C ) :   1.5921 B(  2-C , 10-H ) :   0.8826 B(  3-C ,  4-C ) :   1.4852 
B(  3-C ,  8-O ) :   0.1333 B(  3-C , 11-H ) :   0.8432 B(  4-C ,  5-C ) :   1.5661 
B(  4-C ,  6-N ) :  -0.1389 B(  4-C ,  8-O ) :   0.1602 B(  4-C ,  9-F ) :  -0.1164 
B(  4-C , 12-H ) :   0.7564 B(  5-C ,  6-N ) :   0.7496 B(  5-C ,  8-O ) :  -0.1606 
B(  5-C ,  9-F ) :  -0.3497 B(  5-C , 12-H ) :   0.1154 B(  6-N ,  7-O ) :   1.8474 
[...]
 290   0.0000       5.196427       141.4020 
 291   0.0000       5.286595       143.8556 
 292   0.0000       5.370293       146.1331 
 293   0.0000       5.859253       159.4384 
 294   0.0000       6.335129       172.3876 
 295   0.0000       6.416104       174.5911 
 296   0.0000       6.548898       178.2046 
 297   0.0000       6.865138       186.8099 
 298   0.0000       7.976308       217.0464 
 299   0.0000      17.544749       477.4169 
 300   0.0000      17.545182       477.4287 
 301   0.0000      17.631252       479.7707 
 302   0.0000      23.699308       644.8910 
 303   0.0000      23.954233       651.8278 
 304   0.0000      24.018187       653.5681 
 305   0.0000      24.029443       653.8744 
 306   0.0000      24.135728       656.7665 
 307   0.0000      24.245242       659.7466 
 308   0.0000      35.449753       964.6368 
 309   0.0000      35.736167       972.4305 
 310   0.0000      49.920372      1358.4024 
 311   0.0000      50.036593      1361.5649 
 312   0.0000      66.806042      1817.8848 
 313   0.0000     188.965155      5142.0033 

--------------------
FRAGMENT INFORMATION
--------------------
Fragment  1:    0   1   2   3   4   5 
Fragment  2:    6   7   8   9  10  11  12 
Fragment  3:   13  14  15  16 
Fragment  4:   17 


                    ********************************
                    * MULLIKEN POPULATION ANALYSIS *
                    ********************************

-------------------------
MULLIKEN FRAGMENT CHARGES
-------------------------
 Fragment   0 :  -0.459240
 Fragment   1 :   0.459144
 Fragment   2 :  -0.029735
 Fragment   3 :  -0.970169
Sum of fragment charges:   -1.0000000

---------------------------------
MULLIKEN FRAGMENT OVERLAP CHARGES
---------------------------------
                  0          1          2          3    
      0      19.163571   0.489573  -0.000021   0.000001
      1       0.489573  35.104548   0.000001  -0.000027
      2      -0.000021   0.000001  11.657574  -0.693749
      3       0.000001  -0.000027  -0.693749  17.317056

-----------------------
MULLIKEN ATOMIC CHARGES
-----------------------
   0 C :   -0.001715
   1 N :   -0.192892
   2 C :   -0.283500
   3 C :   -0.327625
   4 C :    0.524561
   5 C :   -0.178068
   6 N :   -0.015245
   7 O :   -0.174732
   8 O :   -0.118844
   9 F :   -0.117630
  10 H :    0.285547
  11 H :    0.279476
  12 H :    0.320571
  13 C :   -0.409953
  14 H :    0.126837
  15 H :    0.126379
  16 H :    0.127002
  17 S :   -0.970169
Sum of atomic charges:   -1.0000000

--------------------------------
MULLIKEN REDUCED ORBITAL CHARGES
--------------------------------
  0 C s       :     3.229125  s :     3.229125
      pz      :     0.676004  p :     2.602341
      px      :     0.980111
      py      :     0.946226
      dz2     :     0.057157  d :     0.170250
      dxz     :     0.050596
      dyz     :     0.029440
      dx2y2   :     0.014671
      dxy     :     0.018387
  1 N s       :     3.604980  s :     3.604980
      pz      :     1.151405  p :     3.553376
      px      :     1.249267
      py      :     1.152704
      dz2     :     0.008771  d :     0.034536
      dxz     :     0.008580
      dyz     :     0.005222
      dx2y2   :     0.006112
      dxy     :     0.005850
  2 C s       :     3.319264  s :     3.319264
      pz      :     0.826282  p :     2.875282
      px      :     1.178762
      py      :     0.870239
      dz2     :     0.025190  d :     0.088954
      dxz     :     0.033451
      dyz     :     0.015887
      dx2y2   :     0.007899
      dxy     :     0.006528
  3 C s       :     3.263221  s :     3.263221
      pz      :     1.158787  p :     3.008792
      px      :     0.881402
      py      :     0.968603
      dz2     :     0.015874  d :     0.055612
      dxz     :     0.018416
      dyz     :     0.005668
      dx2y2   :     0.008180
      dxy     :     0.007475
  4 C s       :     2.407210  s :     2.407210
      pz      :     0.920645  p :     3.008574
      px      :     1.238265
      py      :     0.849665
      dz2     :     0.017048  d :     0.059654
      dxz     :     0.016317
      dyz     :     0.011350
      dx2y2   :     0.007723
      dxy     :     0.007217
  5 C s       :     3.362488  s :     3.362488
      pz      :     1.109117  p :     2.741971
      px      :     0.502591
      py      :     1.130264
      dz2     :     0.013345  d :     0.073610
      dxz     :     0.030678
      dyz     :     0.010360
      dx2y2   :     0.011135
      dxy     :     0.008092
  6 N s       :     3.490610  s :     3.490610
      pz      :     1.047746  p :     3.387168
      px      :     1.230173
      py      :     1.109249
      dz2     :     0.037103  d :     0.137467
      dxz     :     0.044574
      dyz     :     0.027900
      dx2y2   :     0.012450
      dxy     :     0.015441
  7 O s       :     3.809605  s :     3.809605
      pz      :     1.027420  p :     4.347059
      px      :     1.842928
      py      :     1.476710
      dz2     :     0.009696  d :     0.018068
      dxz     :     0.003222
      dyz     :     0.004974
      dx2y2   :     0.000106
      dxy     :     0.000070
  8 O s       :     3.780857  s :     3.780857
      pz      :     1.601392  p :     4.318035
      px      :     1.282211
      py      :     1.434432
      dz2     :     0.002241  d :     0.019952
      dxz     :     0.007032
      dyz     :     0.001778
      dx2y2   :     0.004630
      dxy     :     0.004271
  9 F s       :     3.917234  s :     3.917234
      pz      :     1.398315  p :     5.195159
      px      :     1.918009
      py      :     1.878835
      dz2     :     0.003051  d :     0.005237
      dxz     :     0.000973
      dyz     :     0.001172
      dx2y2   :     0.000030
      dxy     :     0.000010
 10 H s       :     0.691156  s :     0.691156
      pz      :     0.004484  p :     0.023297
      px      :     0.014495
      py      :     0.004318
 11 H s       :     0.695335  s :     0.695335
      pz      :     0.016418  p :     0.025189
      px      :     0.003788
      py      :     0.004983
 12 H s       :     0.653607  s :     0.653607
      pz      :     0.007640  p :     0.025822
      px      :     0.013707
      py      :     0.004475
 13 C s       :     3.269793  s :     3.269793
      pz      :     1.027745  p :     3.087535
      px      :     1.054444
      py      :     1.005346
      dz2     :     0.013245  d :     0.052626
      dxz     :     0.007522
      dyz     :     0.010031
      dx2y2   :     0.015220
      dxy     :     0.006607
 14 H s       :     0.850440  s :     0.850440
      pz      :     0.011788  p :     0.022723
      px      :     0.006188
      py      :     0.004747
 15 H s       :     0.850880  s :     0.850880
      pz      :     0.004783  p :     0.022742
      px      :     0.013279
      py      :     0.004680
 16 H s       :     0.850279  s :     0.850279
      pz      :     0.006052  p :     0.022719
      px      :     0.005544
      py      :     0.011123
 17 S s       :     6.022237  s :     6.022237
      pz      :     3.623366  p :    10.916493
      px      :     3.929103
      py      :     3.364024
      dz2     :     0.003179  d :     0.031438
      dxz     :     0.002846
      dyz     :     0.014246
      dx2y2   :     0.006554
      dxy     :     0.004613


                     *******************************
                     * LOEWDIN POPULATION ANALYSIS *
                     *******************************

------------------------
LOEWDIN FRAGMENT CHARGES
------------------------
 Fragment   0 :   0.039907
 Fragment   1 :  -0.039914
 Fragment   2 :  -0.355538
 Fragment   3 :  -0.644456

----------------------------
LOEWDIN FRAGMENT BOND ORDERS
----------------------------
                  0          1          2          3    
      0      57.186501   6.721268   0.000007   0.000042
      1       6.721268  44.210204   0.000002   0.000018
      2       0.000007   0.000002  15.419742   1.742661
      3       0.000042   0.000018   1.742661  16.644456

----------------------
LOEWDIN ATOMIC CHARGES
----------------------
   0 C :    0.083319
   1 N :   -0.080437
   2 C :    0.058163
   3 C :   -0.033019
   4 C :    0.075078
   5 C :   -0.063197
   6 N :    0.202512
   7 O :   -0.224384
   8 O :   -0.197900
   9 F :   -0.088274
  10 H :    0.083787
  11 H :    0.085952
  12 H :    0.098393
  13 C :   -0.358973
  14 H :    0.001191
  15 H :    0.001052
  16 H :    0.001191
  17 S :   -0.644456

-------------------------------
LOEWDIN REDUCED ORBITAL CHARGES
-------------------------------
  0 C s       :     2.730766  s :     2.730766
      pz      :     0.852217  p :     2.834821
      px      :     1.094869
      py      :     0.887736
      dz2     :     0.121805  d :     0.351093
      dxz     :     0.104274
      dyz     :     0.052142
      dx2y2   :     0.037284
      dxy     :     0.035589
  1 N s       :     3.108765  s :     3.108765
      pz      :     1.301148  p :     3.906699
      px      :     1.432430
      py      :     1.173121
      dz2     :     0.019025  d :     0.064973
      dxz     :     0.018295
      dyz     :     0.009047
      dx2y2   :     0.010756
      dxy     :     0.007850
  2 C s       :     2.774378  s :     2.774378
      pz      :     1.042356  p :     2.973808
      px      :     1.092608
      py      :     0.838844
      dz2     :     0.064384  d :     0.193651
      dxz     :     0.072777
      dyz     :     0.030583
      dx2y2   :     0.015178
      dxy     :     0.010729
  3 C s       :     2.772409  s :     2.772409
      pz      :     1.079693  p :     3.131182
      px      :     1.096130
      py      :     0.955360
      dz2     :     0.035194  d :     0.129428
      dxz     :     0.047283
      dyz     :     0.008812
      dx2y2   :     0.022377
      dxy     :     0.015761
  4 C s       :     2.768335  s :     2.768335
      pz      :     1.074425  p :     3.021749
      px      :     1.105267
      py      :     0.842057
      dz2     :     0.042307  d :     0.134838
      dxz     :     0.040876
      dyz     :     0.022945
      dx2y2   :     0.016089
      dxy     :     0.012622
  5 C s       :     2.752476  s :     2.752476
      pz      :     1.090912  p :     3.128908
      px      :     0.955968
      py      :     1.082028
      dz2     :     0.039828  d :     0.181813
      dxz     :     0.073697
      dyz     :     0.020112
      dx2y2   :     0.030927
      dxy     :     0.017248
  6 N s       :     2.999909  s :     2.999909
      pz      :     1.218263  p :     3.531644
      px      :     1.231769
      py      :     1.081612
      dz2     :     0.079096  d :     0.265935
      dxz     :     0.090666
      dyz     :     0.044094
      dx2y2   :     0.026957
      dxy     :     0.025121
  7 O s       :     3.573961  s :     3.573961
      pz      :     1.278738  p :     4.618876
      px      :     1.850139
      py      :     1.489998
      dz2     :     0.020361  d :     0.031547
      dxz     :     0.004813
      dyz     :     0.006166
      dx2y2   :     0.000132
      dxy     :     0.000075
  8 O s       :     3.550183  s :     3.550183
      pz      :     1.709334  p :     4.612680
      px      :     1.450995
      py      :     1.452351
      dz2     :     0.003477  d :     0.035037
      dxz     :     0.014347
      dyz     :     0.002454
      dx2y2   :     0.009115
      dxy     :     0.005643
  9 F s       :     3.713941  s :     3.713941
      pz      :     1.539250  p :     5.367071
      px      :     1.937500
      py      :     1.890321
      dz2     :     0.004698  d :     0.007263
      dxz     :     0.001169
      dyz     :     0.001345
      dx2y2   :     0.000040
      dxy     :     0.000010
 10 H s       :     0.847591  s :     0.847591
      pz      :     0.014033  p :     0.068622
      px      :     0.042931
      py      :     0.011657
 11 H s       :     0.841849  s :     0.841849
      pz      :     0.047432  p :     0.072199
      px      :     0.011374
      py      :     0.013393
 12 H s       :     0.828052  s :     0.828052
      pz      :     0.022471  p :     0.073555
      px      :     0.039507
      py      :     0.011577
 13 C s       :     2.858264  s :     2.858264
      pz      :     1.131867  p :     3.393785
      px      :     1.120446
      py      :     1.141472
      dz2     :     0.026164  d :     0.106924
      dxz     :     0.014612
      dyz     :     0.022106
      dx2y2   :     0.030977
      dxy     :     0.013065
 14 H s       :     0.927045  s :     0.927045
      pz      :     0.038683  p :     0.071764
      px      :     0.018604
      py      :     0.014476
 15 H s       :     0.927170  s :     0.927170
      pz      :     0.014412  p :     0.071778
      px      :     0.042997
      py      :     0.014369
 16 H s       :     0.927039  s :     0.927039
      pz      :     0.018366  p :     0.071770
      px      :     0.016468
      py      :     0.036936
 17 S s       :     5.613968  s :     5.613968
      pz      :     3.653023  p :    10.993342
      px      :     3.885713
      py      :     3.454606
      dz2     :     0.003566  d :     0.037146
      dxz     :     0.003308
      dyz     :     0.017146
      dx2y2   :     0.007754
      dxy     :     0.005371


                      *****************************
                      * MAYER POPULATION ANALYSIS *
                      *****************************

  NA   - Mulliken gross atomic population
  ZA   - Total nuclear charge
  QA   - Mulliken gross atomic charge
  VA   - Mayer's total valence
  BVA  - Mayer's bonded valence
  FA   - Mayer's free valence

  ATOM       NA         ZA         QA         VA         BVA        FA
  0 C      6.0017     6.0000    -0.0017     4.2812     4.2812    -0.0000
  1 N      7.1929     7.0000    -0.1929     2.7278     2.7278    -0.0000
  2 C      6.2835     6.0000    -0.2835     4.0305     4.0305     0.0000
  3 C      6.3276     6.0000    -0.3276     4.4956     4.4956    -0.0000
  4 C      5.4754     6.0000     0.5246     4.0175     4.0175    -0.0000
  5 C      6.1781     6.0000    -0.1781     3.3693     3.3693    -0.0000
  6 N      7.0152     7.0000    -0.0152     4.0146     4.0146    -0.0000
  7 O      8.1747     8.0000    -0.1747     2.0943     2.0943    -0.0000
  8 O      8.1188     8.0000    -0.1188     2.1793     2.1793    -0.0000
  9 F      9.1176     9.0000    -0.1176     0.9240     0.9240    -0.0000
 10 H      0.7145     1.0000     0.2855     0.8728     0.8728    -0.0000
 11 H      0.7205     1.0000     0.2795     0.9079     0.9079     0.0000
 12 H      0.6794     1.0000     0.3206     0.8391     0.8391    -0.0000
 13 C      6.4100     6.0000    -0.4100     3.5643     3.5643     0.0000
 14 H      0.8732     1.0000     0.1268     0.9425     0.9425    -0.0000
 15 H      0.8736     1.0000     0.1264     0.9428     0.9428     0.0000
 16 H      0.8730     1.0000     0.1270     0.9424     0.9424     0.0000
 17 S     16.9702    16.0000    -0.9702     0.5883     0.5883    -0.0000

  Mayer bond orders larger than 0.100000
B(  0-C ,  1-N ) :   1.3074 B(  0-C ,  2-C ) :   0.1730 B(  0-C ,  3-C ) :   0.1777 
B(  0-C ,  4-C ) :   0.2520 B(  0-C ,  5-C ) :   1.2389 B(  0-C ,  6-N ) :  -0.1802 
B(  0-C ,  7-O ) :   0.1052 B(  0-C ,  8-O ) :  -0.1050 B(  0-C ,  9-F ) :   1.3418 
B(  1-N ,  2-C ) :   1.1646 B(  1-N ,  5-C ) :   0.1978 B(  2-C ,  3-C ) :   1.6759 
B(  2-C ,  5-C ) :   0.1065 B(  2-C , 10-H ) :   0.8841 B(  3-C ,  4-C ) :   1.4262 
B(  3-C ,  5-C ) :   0.1196 B(  3-C ,  8-O ) :   0.1475 B(  3-C , 11-H ) :   0.8394 
B(  4-C ,  5-C ) :   1.5424 B(  4-C ,  8-O ) :   0.2340 B(  4-C ,  9-F ) :  -0.1246 
B(  4-C , 12-H ) :   0.7249 B(  5-C ,  6-N ) :   0.6646 B(  5-C ,  7-O ) :  -0.1253 
B(  5-C ,  8-O ) :  -0.2019 B(  5-C ,  9-F ) :  -0.3257 B(  5-C , 12-H ) :   0.1381 
B(  6-N ,  7-O ) :   1.8187 B(  6-N ,  8-O ) :   1.8503 B(  7-O ,  8-O ) :   0.2349 
B( 13-C , 14-H ) :   0.9815 B( 13-C , 15-H ) :   0.9819 B( 13-C , 16-H ) :   0.9820 
B( 13-C , 17-S ) :   0.6188 

-------
TIMINGS
-------

Total SCF time: 0 days 0 hours 0 min 13 sec 

Total time                  ....      13.204 sec
Sum of individual times     ....      12.532 sec  ( 94.9%)

Fock matrix formation       ....      10.070 sec  ( 76.3%)
  Split-RI-J                ....       0.652 sec  (  6.5% of F)
  Chain of spheres X        ....       7.331 sec  ( 72.8% of F)
  XC integration            ....       1.022 sec  ( 10.2% of F)
    Basis function eval.    ....       0.080 sec  (  7.9% of XC)
    Density eval.           ....       0.087 sec  (  8.5% of XC)
    XC-Functional eval.     ....       0.048 sec  (  4.7% of XC)
    XC-Potential eval.      ....       0.057 sec  (  5.6% of XC)
Diagonalization             ....       0.026 sec  (  0.2%)
Density matrix formation    ....       0.012 sec  (  0.1%)
Population analysis         ....       0.068 sec  (  0.5%)
Initial guess               ....       0.044 sec  (  0.3%)
Orbital Transformation      ....       0.000 sec  (  0.0%)
Orbital Orthonormalization  ....       0.033 sec  (  0.2%)
DIIS solution               ....       0.011 sec  (  0.1%)
SOSCF solution              ....       0.061 sec  (  0.5%)
Grid generation             ....       2.241 sec  ( 17.0%)

Maximum memory used throughout the entire SCF-calculation: 67.9 MB

-------------------------   --------------------
FINAL SINGLE POINT ENERGY      -990.264053079293
-------------------------   --------------------

                                *** OPTIMIZATION RUN DONE ***

                            ***************************************
                            *     ORCA property calculations      *
                            ***************************************

                                    ---------------------
                                    Active property flags
                                    ---------------------
   (+) Dipole Moment


------------------------------------------------------------------------------
                       ORCA ELECTRIC PROPERTIES CALCULATION
------------------------------------------------------------------------------

Dipole Moment Calculation                       ... on
Quadrupole Moment Calculation                   ... off
Polarizability Calculation                      ... off
GBWName                                         ... structure_opt.gbw
Electron density                                ... structure_opt.scfp
The origin for moment calculation is the CENTER OF MASS  = (-2.156159, -2.539980  1.290997)

-------------
DIPOLE MOMENT
-------------
                                X             Y             Z
Electronic contribution:      3.15752      20.36100      16.75359
Nuclear contribution   :     -0.80148     -13.40119      -5.08878
                        -----------------------------------------
Total Dipole Moment    :      2.35604       6.95981      11.66481
                        -----------------------------------------
Magnitude (a.u.)       :     13.78614
Magnitude (Debye)      :     35.04159



--------------------
Rotational spectrum 
--------------------
 
Rotational constants in cm-1:     0.036369     0.005203     0.004816 
Rotational constants in MHz :  1090.316713   155.976473   144.385076 

 Dipole components along the rotational axes: 
x,y,z [a.u.] :    13.643562    -1.175060     1.590670 
x,y,z [Debye]:    34.679178    -2.986766     4.043161 

 

Timings for individual modules:

Sum of individual times         ...     1216.745 sec (=  20.279 min)
GTO integral calculation        ...       79.597 sec (=   1.327 min)   6.5 %
SCF iterations                  ...      928.697 sec (=  15.478 min)  76.3 %
SCF Gradient evaluation         ...      207.030 sec (=   3.451 min)  17.0 %
Geometry relaxation             ...        1.421 sec (=   0.024 min)   0.1 %
                             ****ORCA TERMINATED NORMALLY****
TOTAL RUN TIME: 0 days 0 hours 21 minutes 41 seconds 401 msec
