
                                 *****************
                                 * O   R   C   A *
                                 *****************

                                            #,                                       
                                            ###                                      
                                            ####                                     
                                            #####                                    
                                            ######                                   
                                           ########,                                 
                                     ,,################,,,,,                         
                               ,,#################################,,                 
                          ,,##########################################,,             
                       ,#########################################, ''#####,          
                    ,#############################################,,   '####,        
                  ,##################################################,,,,####,       
                ,###########''''           ''''###############################       
              ,#####''   ,,,,##########,,,,          '''####'''          '####       
            ,##' ,,,,###########################,,,                        '##       
           ' ,,###''''                  '''############,,,                           
         ,,##''                                '''############,,,,        ,,,,,,###''
      ,#''                                            '''#######################'''  
     '                                                          ''''####''''         
             ,#######,   #######,   ,#######,      ##                                
            ,#'     '#,  ##    ##  ,#'     '#,    #''#        ######   ,####,        
            ##       ##  ##   ,#'  ##            #'  '#       #        #'  '#        
            ##       ##  #######   ##           ,######,      #####,   #    #        
            '#,     ,#'  ##    ##  '#,     ,#' ,#      #,         ##   #,  ,#        
             '#######'   ##     ##  '#######'  #'      '#     #####' # '####'        



                  #######################################################
                  #                        -***-                        #
                  #          Department of theory and spectroscopy      #
                  #    Directorship and core code : Frank Neese         #
                  #        Max Planck Institute fuer Kohlenforschung    #
                  #                Kaiser Wilhelm Platz 1               #
                  #                 D-45470 Muelheim/Ruhr               #
                  #                      Germany                        #
                  #                                                     #
                  #                  All rights reserved                #
                  #                        -***-                        #
                  #######################################################


                         Program Version 5.0.1 -  RELEASE  -


 With contributions from (in alphabetic order):
   Daniel Aravena         : Magnetic Suceptibility
   Michael Atanasov       : Ab Initio Ligand Field Theory (pilot matlab implementation)
   Alexander A. Auer      : GIAO ZORA, VPT2 properties, NMR spectrum
   Ute Becker             : Parallelization
   Giovanni Bistoni       : ED, misc. LED, open-shell LED, HFLD
   Martin Brehm           : Molecular dynamics
   Dmytro Bykov           : SCF Hessian
   Vijay G. Chilkuri      : MRCI spin determinant printing, contributions to CSF-ICE
   Dipayan Datta          : RHF DLPNO-CCSD density
   Achintya Kumar Dutta   : EOM-CC, STEOM-CC
   Dmitry Ganyushin       : Spin-Orbit,Spin-Spin,Magnetic field MRCI
   Miquel Garcia          : C-PCM and meta-GGA Hessian, CC/C-PCM, Gaussian charge scheme
   Yang Guo               : DLPNO-NEVPT2, F12-NEVPT2, CIM, IAO-localization
   Andreas Hansen         : Spin unrestricted coupled pair/coupled cluster methods
   Benjamin Helmich-Paris : MC-RPA, TRAH-SCF, COSX integrals
   Lee Huntington         : MR-EOM, pCC
   Robert Izsak           : Overlap fitted RIJCOSX, COSX-SCS-MP3, EOM
   Marcus Kettner         : VPT2
   Christian Kollmar      : KDIIS, OOCD, Brueckner-CCSD(T), CCSD density, CASPT2, CASPT2-K
   Simone Kossmann        : Meta GGA functionals, TD-DFT gradient, OOMP2, MP2 Hessian
   Martin Krupicka        : Initial AUTO-CI
   Lucas Lang             : DCDCAS
   Marvin Lechner         : AUTO-CI (C++ implementation), FIC-MRCC
   Dagmar Lenk            : GEPOL surface, SMD
   Dimitrios Liakos       : Extrapolation schemes; Compound Job, initial MDCI parallelization
   Dimitrios Manganas     : Further ROCIS development; embedding schemes
   Dimitrios Pantazis     : SARC Basis sets
   Anastasios Papadopoulos: AUTO-CI, single reference methods and gradients
   Taras Petrenko         : DFT Hessian,TD-DFT gradient, ASA, ECA, R-Raman, ABS, FL, XAS/XES, NRVS
   Peter Pinski           : DLPNO-MP2, DLPNO-MP2 Gradient
   Christoph Reimann      : Effective Core Potentials
   Marius Retegan         : Local ZFS, SOC
   Christoph Riplinger    : Optimizer, TS searches, QM/MM, DLPNO-CCSD(T), (RO)-DLPNO pert. Triples
   Tobias Risthaus        : Range-separated hybrids, TD-DFT gradient, RPA, STAB
   Michael Roemelt        : Original ROCIS implementation
   Masaaki Saitow         : Open-shell DLPNO-CCSD energy and density
   Barbara Sandhoefer     : DKH picture change effects
   Avijit Sen             : IP-ROCIS
   Kantharuban Sivalingam : CASSCF convergence, NEVPT2, FIC-MRCI
   Bernardo de Souza      : ESD, SOC TD-DFT
   Georgi Stoychev        : AutoAux, RI-MP2 NMR, DLPNO-MP2 response
   Willem Van den Heuvel  : Paramagnetic NMR
   Boris Wezisla          : Elementary symmetry handling
   Frank Wennmohs         : Technical directorship


 We gratefully acknowledge several colleagues who have allowed us to
 interface, adapt or use parts of their codes:
   Stefan Grimme, W. Hujo, H. Kruse, P. Pracht,  : VdW corrections, initial TS optimization,
                  C. Bannwarth, S. Ehlert          DFT functionals, gCP, sTDA/sTD-DF
   Ed Valeev, F. Pavosevic, A. Kumar             : LibInt (2-el integral package), F12 methods
   Garnet Chan, S. Sharma, J. Yang, R. Olivares  : DMRG
   Ulf Ekstrom                                   : XCFun DFT Library
   Mihaly Kallay                                 : mrcc  (arbitrary order and MRCC methods)
   Jiri Pittner, Ondrej Demel                    : Mk-CCSD
   Frank Weinhold                                : gennbo (NPA and NBO analysis)
   Christopher J. Cramer and Donald G. Truhlar   : smd solvation model
   Lars Goerigk                                  : TD-DFT with DH, B97 family of functionals
   V. Asgeirsson, H. Jonsson                     : NEB implementation
   FAccTs GmbH                                   : IRC, NEB, NEB-TS, DLPNO-Multilevel, CI-OPT
                                                   MM, QMMM, 2- and 3-layer-ONIOM, Crystal-QMMM,
                                                   LR-CPCM, SF, NACMEs, symmetry and pop. for TD-DFT,
                                                   nearIR, NL-DFT gradient (VV10), updates on ESD,
                                                   ML-optimized integration grids
   S Lehtola, MJT Oliveira, MAL Marques          : LibXC Library
   Liviu Ungur et al                             : ANISO software


 Your calculation uses the libint2 library for the computation of 2-el integrals
 For citations please refer to: http://libint.valeyev.net

 Your ORCA version has been built with support for libXC version: 5.1.0
 For citations please refer to: https://tddft.org/programs/libxc/

 This ORCA versions uses:
   CBLAS   interface :  Fast vector & matrix operations
   LAPACKE interface :  Fast linear algebra routines
   SCALAPACK package :  Parallel linear algebra routines
   Shared memory     :  Shared parallel matrices
   BLAS/LAPACK       :  OpenBLAS 0.3.15  USE64BITINT DYNAMIC_ARCH NO_AFFINITY SkylakeX SINGLE_THREADED
        Core in use  :  SkylakeX
   Copyright (c) 2011-2014, The OpenBLAS Project




***************************************
The coordinates will be read from file: structure_opt.xyz
***************************************


Your calculation utilizes the atom-pairwise dispersion correction
based on tight binding partial charges (D4)
Cite in your paper:
E.Caldeweyher, C.Bannwarth, S.Grimme, J.Chem.Phys., (2017), 147, 034112.
E.Caldeweyher, S.Ehlert, A.Hansen, H.Neugebauer, S.Grimme, J.Chem.Phys., (2018), in progress.
   

Your calculation utilizes the SMD solvation module
Please cite in your paper:
A.V. Marenich, C.J. Cramer, D.G. Truhlar J. Phys. Chem. B, 113, (2009), 6378 

XCFun DFT library Copyright 2009-2010 Ulf Ekstrom and contributors.
See http://admol.org/xcfun for more information.
This is free software; see the source code for copying conditions.
There is ABSOLUTELY NO WARRANTY; not even for MERCHANTABILITY or FITNESS FOR A PARTICULAR PURPOSE.
For details see the documentation.
Scientific users of this library should cite U. Ekstrom, L. Visscher, R. Bast, A. J. Thorvaldsen and K. Ruud;
J.Chem.Theor.Comp. 2010, DOI: 10.1021/ct100117s
XCFun Version 0.99 

Your calculation utilizes a Nudged-Elastic-Band implementation
 by V.Asgeirsson, C. Riplinger & H. Jonsson
Please cite in your paper:
 V. Asgeirsson et al., in prep. (2019)
   

================================================================================

----- Orbital basis set information -----
Your calculation utilizes the basis: 6-311++G**
   H, Li - Ne  : R. Krishnan, J. S. Binkley, R. Seeger and J. A. Pople, J. Chem. Phys. 72, 650 (1980).
   Na - Ar     : A. D. McLean and G. S. Chandler J. Chem. Phys. 72, 5639, (1980).
   K  - Ca     : J.-P. Blaudeau, M. P. McGrath, L. A. Curtiss and L. Radom, J. Chem. Phys. 107, 5016 (1997).
   Ga - Kr     : L. A. Curtiss, M. P. McGrath, J.-P. Blandeau, N. E. Davis, R. C. Binning and L. Radom, J. Chem. Phys. 103, 6104 (1995).
   Pol./Diff.
   H, Li - Cl  : T. Clark, J. Chandrasekhar and P. v. R. Schleyer, J. Comp. Chem. 4, 294 (1983).
   H - Ne      : M. J. Frisch, J. A. Pople and J. S. Binkley, J. Chem. Phys. 80, 3265 (1984).

----- AuxJ basis set information -----
Your calculation utilizes the auxiliary basis: def2/J
   F. Weigend, Phys. Chem. Chem. Phys. 8, 1057 (2006).

================================================================================
                                        WARNINGS
                       Please study these warnings very carefully!
================================================================================


WARNING: The environment variable RSH_COMMAND is not set!
  ===> : All Displacements for the Numerical Hessian calculation
         will be started on localhost

WARNING: Geometry Optimization
  ===> : Switching off AutoStart
         For restart on a previous wavefunction, please use MOREAD

INFO   : the flag for use of the SHARK integral package has been found!

================================================================================
                                       INPUT FILE
================================================================================
NAME = TS_search_opt_without_h.inp
|  1> !wb97x 6-311++G** D4 NEB-TS OPT NUMFREQ CPCM(WATER)
|  2> %maxcore  3500
|  3> %pal
|  4> nprocs 24
|  5> end
|  6> %cpcm
|  7> smd true
|  8> SMDsolvent "water"
|  9> end
| 10> %geom
| 11> MaxIter 1000   # allows for n optimization cycles
| 12> EnforceStrictConvergence False
| 13> end
| 14> %NEB NEB_END_XYZFILE "2f3_prod_opt.xyz" END
| 15> * XYZfile -1 1 structure_opt.xyz
| 16> 
| 17>                          ****END OF INPUT****
================================================================================


------------------------------------------------------------------------------- 
                         Nudged Elastic Band Calculation                       
------------------------------------------------------------------------------- 

Number of images (incl. end points)     ....  10
Number of intermediate images           ....  8
Number of optimized images              ....  8
Optimization of end points before NEB   ....  NO
Use existing gbw files for MO input     ....  NO
Number of atoms                         ....  18
Number of (active) degrees of freedom   ....  54
Constrained atoms                       ....  None

-----------------------------------------
  REACTANT (ANGSTROEM)
-----------------------------------------
C      0.000999    -0.001988     1.845313 
N      1.123937    -0.189666     2.468169 
C      1.196880    -0.202200     3.798985 
C      0.089997    -0.019857     4.597367 
C     -1.117126     0.181679     3.959761 
C     -1.191378     0.194676     2.576063 
N     -2.455103     0.406503     1.917805 
O     -2.539520     0.422441     0.672784 
O     -3.464962     0.573534     2.575328 
F      0.001632     0.000127     0.495315 
H      2.182514    -0.364523     4.221271 
H      0.160106    -0.032175     5.676933 
H     -2.016069     0.330225     4.537324 
C     -2.195647    -6.764336    -5.160361 
H     -1.736351    -6.644752    -6.145641 
H     -3.281999    -6.808342    -5.276984 
H     -1.845544    -7.701412    -4.718464 
S     -1.745364    -5.378934    -4.097970 

-----------------------------------------
  PRODUCT (ANGSTROEM)
-----------------------------------------
C     -0.006655     0.014080     1.789576 
N      1.150760    -0.163122     2.425247 
C      1.177726    -0.139964     3.759145 
C      0.054738     0.057580     4.546999 
C     -1.158972     0.233636     3.911162 
C     -1.178720     0.217442     2.525234 
N     -2.493686     0.427964     1.904940 
O     -2.584738     1.164910     0.947848 
O     -3.439094    -0.145340     2.414303 
F      3.139899     2.499865     0.919104 
H      2.152169    -0.281946     4.215772 
H      0.130494     0.071637     5.627108 
H     -2.077395     0.389730     4.465403 
C      0.049505     1.625975    -0.482258 
H     -0.875798     2.113075    -0.187252 
H      0.131238     1.624494    -1.570971 
H      0.921382     2.132605    -0.060262 
S      0.064147    -0.119619     0.009902 



----------------------
NEB settings
----------------------
Method type                             ....  climbing image
Threshold for climbing image            ....  2.00e-02 Eh/Bohr 
Free endpoints                          ....  off 
Tangent type                            ....  improved 
Number of intermediate images           ....  8 
Number of images free to move           ....  8 
Spring type for image distribution      ....  distance between adjacent images 
Spring constant                         ....  energy weighted (0.0100 -to- 0.1000) Eh/Bohr^2 
Spring force perp. to the path          ....  none 
Generation of initial path              ....  image dependent pair potential 
Initial path via TS guess               ....  off 

Minimization of RMSD: Rotation          ....  always 
Minimization of RMSD: Translation type  ....  centroid 
Center fixed to origin                  ....  true 
Remove external force                   ....  true 

Reparametrization of the path           ....  off 
Convergence thresholds:
Convergence monitored for               ....  all images
Scaling factor                          ....  10.00

Convergence parameters for regular images:
               Max(|Fp|)                ....  2.00e-02 Eh/Bohr
               RMS(Fp)                  ....  1.00e-02 Eh/Bohr

Convergence parameters for climbing image:
               Max(|F|)                 ....  2.00e-03 Eh/Bohr
               RMS(F)                   ....  1.00e-03 Eh/Bohr
Optimization method:
Method                                  ....  L-BFGS
Max. iterations                         ....  500 
Step size                               ....  1.00 
Maximum allowed step size               ....  0.10 Bohr

LBFGS parameters: 
               Memory                   ....  20 
               Initial step size        ....  0.0010 
               Estimate curvature       ....  YES 
               Reset on maxmove         ....  YES 
               Reparam. on reset        ....  NO 
Generation of  the initial path:
Minimize RMSD between reactant and product configurations     .... done
       RMSD before minimization         ....  5.7396 Bohr
       RMSD after minimization          ....  3.7302 Bohr
Performing linear interpolation         ....  done
Interpolation using                     ....  IDPP (Image Dependent Pair Potential)
IDPP-Settings:
       Remove global transl. and rot.   ...   true
       Convergence tolerance            ....  0.0100 1/Ang.^3
       Max. numer of iterations         ....    7000
       Spring constant                  ....  1.0000 1/Ang.^4
       Time step                        ....  0.0100 fs
       Max. movement per iteration      ....  0.0500 Ang.
       Full print                       ....  false 
idpp initial path generation successfully converged in 115 iterations
Displacement along initial path:             28.0071 Bohr
Writing initial trajectory to file      ....  TS_search_opt_without_h_initial_path_trj.xyz



----------------------
NEB OPTIMIZATION      
----------------------

Following output files will be written:
Energy profile during opt. written to    ....  TS_search_opt_without_h.interp
Optimization log-file                    ....  TS_search_opt_without_h.NEB.log
Current trajectory will be written to    ....  TS_search_opt_without_h_MEP_trj.xyz
       and to allxyz file                ....  TS_search_opt_without_h_MEP.allxyz
       and individual images to xyz file ....  TS_search_opt_without_h_im{NIm}.xyz
Trajectory history will be written to    ....  TS_search_opt_without_h_MEP_ALL_trj.xyz
Converged CI will be written to          ....  TS_search_opt_without_h_NEB-CI_converged.xyz
Converged TS will be written to          ....  TS_search_opt_without_h_NEB-TS_converged.xyz

Single point energy and gradient calculation of reactant and
product configurations (have to be performed only once)
Properties of fixed NEB end points:
               Reactant:
                         E               ....   -990.266419 Eh
                         RMS(F)          ....      0.011310 Eh/Bohr
                         MAX(|F|)        ....      0.041956 Eh/Bohr
      Warning: Reactant seems to be less converged than convergence tolerances.
               You might want to use free end NEB or preopt_ends true.
               Product:
                         E               ....   -990.305521 Eh
                         RMS(F)          ....      0.001240 Eh/Bohr
                         MAX(|F|)        ....      0.004459 Eh/Bohr



Starting iterations:

Optim.  Iteration  HEI  E(HEI)-E(0)  max(|Fp|)   RMS(Fp)    dS
Switch-on CI threshold               0.020000 
   LBFGS     0      5    0.187014    0.124334   0.019508  28.0071       
   LBFGS     1      5    0.169099    0.078313   0.009556  28.0040       
   LBFGS     2      5    0.169712    0.136758   0.015576  28.0093       
   LBFGS     3      5    0.161110    0.061119   0.007875  28.0065       
   LBFGS     4      5    0.161760    0.061881   0.009298  28.0111       
   LBFGS     5      5    0.165195    0.096497   0.012029  28.0359       
   LBFGS     6      5    0.157897    0.079401   0.009392  28.0501       
   LBFGS     7      5    0.157857    0.086232   0.010011  28.0653       
   LBFGS     8      5    0.156808    0.078868   0.010245  28.1014       
   LBFGS     9      5    0.155749    0.062289   0.007421  28.1113       
   LBFGS    10      5    0.156467    0.067781   0.008692  28.1312       
   LBFGS    11      5    0.158149    0.081314   0.010071  28.1698       
   LBFGS    12      5    0.159539    0.126345   0.012153  28.1941       
   LBFGS    13      5    0.153318    0.043176   0.006711  28.2031       
   LBFGS    14      5    0.152665    0.038667   0.006485  28.2440       
   LBFGS    15      5    0.154584    0.073557   0.008826  28.2739       
   LBFGS    16      5    0.152985    0.068893   0.009305  28.3142       
   LBFGS    17      5    0.153222    0.067224   0.009897  28.3733       
   LBFGS    18      5    0.153337    0.053437   0.007956  28.3999       
   LBFGS    19      5    0.151640    0.034070   0.005355  28.4163       
   LBFGS    20      5    0.153521    0.061888   0.007653  28.4950       
   LBFGS    21      5    0.153128    0.055557   0.005506  28.5133       
   LBFGS    22      5    0.152828    0.047958   0.005742  28.5411       
   LBFGS    23      5    0.153285    0.052088   0.006981  28.6300       
   LBFGS    24      5    0.155456    0.096463   0.008284  28.6632       
   LBFGS    25      5    0.151663    0.030767   0.005117  28.6828       
   LBFGS    26      5    0.152531    0.059209   0.007557  28.7784       
   LBFGS    27      5    0.152422    0.055432   0.005232  28.8052       
   LBFGS    28      5    0.151081    0.030241   0.004139  28.8310       
   LBFGS    29      5    0.151968    0.041370   0.006657  28.9365       
   LBFGS    30      5    0.152651    0.060168   0.005619  28.9650       
   LBFGS    31      5    0.150887    0.022755   0.004268  28.9902       
   LBFGS    32      5    0.153197    0.065342   0.007841  29.0865       
   LBFGS    33      5    0.156639    0.096932   0.009361  29.1981       
   LBFGS    34      5    0.152098    0.053965   0.004801  29.2125       
   LBFGS    35      5    0.150697    0.021597   0.002636  29.2230       
   LBFGS    36      5    0.151611    0.036056   0.005458  29.2859       
   LBFGS    37      5    0.154353    0.068754   0.007734  29.3729       
   LBFGS    38      5    0.152550    0.067730   0.005486  29.3867       
   LBFGS    39      5    0.150532    0.020280   0.002567  29.3949       

Possible intermediate minimum found at image(s): 1 
  => have a look at the .interp file.
  => it is often a good idea to divide the path calculation into smaller fragments. 

   LBFGS    40      5    0.150859    0.029521   0.004466  29.4335       
   LBFGS    41      5    0.153524    0.069897   0.006958  29.5030       
   LBFGS    42      5    0.156080    0.089571   0.008255  29.5919       
   LBFGS    43      5    0.151743    0.054408   0.004854  29.6038       
   LBFGS    44      5    0.150164    0.017778   0.002040  29.6097       

Image  5 will be converted to a climbing image in the next iteration (max(|Fp|) < 0.0200) 

Optim.  Iteration  CI   E(CI)-E(0)   max(|Fp|)   RMS(Fp)    dS     max(|FCI|)   RMS(FCI)
Convergence thresholds               0.020000   0.010000            0.002000    0.001000 
   LBFGS    45      5    0.150077    0.017742   0.001868  29.6125    0.006160    0.001707       
   LBFGS    46      5    0.152827    0.034708   0.003466  29.6723    0.064293    0.013582       
   LBFGS    47      5    0.154201    0.037531   0.004206  29.7482    0.073863    0.016165       
   LBFGS    48      5    0.150424    0.016481   0.002248  29.7605    0.030332    0.006358       
   LBFGS    49      5    0.149982    0.016377   0.001885  29.7707    0.015719    0.003317       
   LBFGS    50      5    0.151433    0.019700   0.003106  29.8737    0.028372    0.007496       
   LBFGS    51      5    0.153622    0.025498   0.003608  30.0034    0.048143    0.011712       
   LBFGS    52      5    0.151070    0.029506   0.002641  30.0059    0.047469    0.010055       
   LBFGS    53      5    0.149756    0.011168   0.001583  30.0100    0.010832    0.002595       
   LBFGS    54      5    0.150110    0.014515   0.002121  30.0281    0.014643    0.004529       
   LBFGS    55      5    0.151588    0.023991   0.002859  30.0730    0.036219    0.009345       
   LBFGS    56      5    0.154003    0.037998   0.003925  30.1786    0.053879    0.013779       
   LBFGS    57      5    0.151123    0.030797   0.002840  30.1976    0.047830    0.010199       
   LBFGS    58      5    0.149753    0.012328   0.001714  30.2088    0.018089    0.004057       
   LBFGS    59      5    0.149633    0.008437   0.001349  30.2472    0.005859    0.002467       
   LBFGS    60      5    0.149988    0.008842   0.001482  30.2868    0.019723    0.004819       
   LBFGS    61      5    0.150239    0.034046   0.002827  30.4058    0.023311    0.005901       
   LBFGS    62      5    0.149559    0.024705   0.002159  30.4045    0.016110    0.003916       
   LBFGS    63      5    0.149311    0.013134   0.001436  30.4044    0.009671    0.002283       
   LBFGS    64      5    0.149519    0.009482   0.001473  30.4159    0.007688    0.002996       
   LBFGS    65      5    0.149715    0.021657   0.002219  30.4450    0.009257    0.003813       
   LBFGS    66      5    0.150129    0.038463   0.003372  30.5443    0.019758    0.006094       
   LBFGS    67      5    0.149424    0.045485   0.003517  30.5712    0.025938    0.005647       
   LBFGS    68      5    0.148973    0.016367   0.001564  30.5842    0.009239    0.002121       
   LBFGS    69      5    0.148952    0.004171   0.000932  30.6142    0.003404    0.001407       
   LBFGS    70      5    0.148912    0.009919   0.001115  30.6351    0.004395    0.001493       

Possible intermediate minimum found at image(s): 1 
  => have a look at the .interp file.
  => it is often a good idea to divide the path calculation into smaller fragments. 

   LBFGS    71      5    0.148964    0.012834   0.001457  30.7329    0.022485    0.004620       
   LBFGS    72      5    0.148799    0.044955   0.003298  30.8586    0.026635    0.005530       
   LBFGS    73      5    0.148464    0.011459   0.001308  30.8539    0.010985    0.002355       
   LBFGS    74      5    0.148392    0.007482   0.001045  30.8512    0.005283    0.001261       
   LBFGS    75      5    0.148290    0.007606   0.000967  30.8399    0.002701    0.000648       
   LBFGS    76      5    0.148410    0.005897   0.001027  30.8475    0.017746    0.003769       
   LBFGS    77      5    0.148350    0.009648   0.001302  30.8610    0.018532    0.003940       
   LBFGS    78      5    0.148069    0.017395   0.001963  30.9808    0.027594    0.005902       
   LBFGS    79      5    0.147687    0.006464   0.001062  30.9908    0.012488    0.002545       
   LBFGS    80      5    0.147627    0.006328   0.000966  31.0016    0.009883    0.002005       
   LBFGS    81      5    0.147517    0.013395   0.001620  31.0755    0.011980    0.002489       
   LBFGS    82      5    0.147472    0.009428   0.001185  31.0990    0.013497    0.002880       
   LBFGS    83      5    0.147375    0.006174   0.000837  31.0947    0.005375    0.001315       
   LBFGS    84      5    0.147275    0.005075   0.000741  31.1072    0.006211    0.001392       
   LBFGS    85      5    0.147165    0.013038   0.001561  31.1707    0.019247    0.003981       
   LBFGS    86      5    0.146865    0.017903   0.002575  31.3492    0.031713    0.006553       
   LBFGS    87      5    0.146269    0.008067   0.001294  31.3464    0.011286    0.002542       
   LBFGS    88      5    0.146190    0.006095   0.001017  31.3447    0.005931    0.001490       
   LBFGS    89      5    0.146060    0.005350   0.000868  31.3372    0.003355    0.000706       
   LBFGS    90      5    0.146021    0.008261   0.001074  31.3368    0.008604    0.001770       
   LBFGS    91      5    0.145925    0.009813   0.001153  31.3381    0.009240    0.001858       
   LBFGS    92      5    0.145261    0.013211   0.001542  31.3683    0.005574    0.001291       
   LBFGS    93      5    0.144739    0.029227   0.003410  31.4521    0.025535    0.005076       
   LBFGS    94      5    0.144368    0.010549   0.001329  31.4552    0.010402    0.002600       
   LBFGS    95      5    0.144253    0.005523   0.000831  31.4563    0.004184    0.000979       
   LBFGS    96      5    0.144182    0.005206   0.000750  31.4598    0.004266    0.001110       
   LBFGS    97      5    0.144083    0.004779   0.000711  31.4662    0.008381    0.001829       
   LBFGS    98      5    0.143782    0.013721   0.001652  31.4813    0.008920    0.002200       
   LBFGS    99      5    0.143465    0.006596   0.001166  31.4930    0.004827    0.001108       
   LBFGS   100      5    0.142741    0.011389   0.001940  31.5250    0.005391    0.001745       
   LBFGS   101      5    0.141557    0.025304   0.003543  31.5965    0.008299    0.002501       

Possible intermediate minimum found at image(s): 1 
  => have a look at the .interp file.
  => it is often a good idea to divide the path calculation into smaller fragments. 

   LBFGS   102      5    0.141365    0.022178   0.002617  31.5824    0.006164    0.001998       
   LBFGS   103      5    0.141213    0.015274   0.002194  31.5684    0.005922    0.001719       
   LBFGS   104      5    0.140700    0.012938   0.002246  31.5230    0.005934    0.001546       
   LBFGS   105      5    0.140402    0.048933   0.004988  31.5387    0.008033    0.002154       
   LBFGS   106      5    0.140389    0.014243   0.001720  31.5256    0.006073    0.001473       
   LBFGS   107      5    0.140257    0.006172   0.001048  31.5229    0.006129    0.001349       
   LBFGS   108      5    0.139847    0.014186   0.001817  31.5286    0.006324    0.001439       
   LBFGS   109      5    0.138870    0.021484   0.002471  31.5640    0.006850    0.001585       
   LBFGS   110      5    0.136746    0.041400   0.004158  31.6363    0.007978    0.002600       
   LBFGS   111      5    0.136604    0.007827   0.001313  31.6230    0.008087    0.001659       
   LBFGS   112      5    0.136522    0.006919   0.001198  31.6118    0.008102    0.001618       
   LBFGS   113      5    0.135603    0.009741   0.001651  31.5152    0.008548    0.002009       
   LBFGS   114      5    0.134742    0.038440   0.004115  31.4857    0.017297    0.004536       
   LBFGS   115      5    0.134195    0.019222   0.002530  31.4846    0.009016    0.002687       
   LBFGS   116      5    0.132130    0.020643   0.002976  31.5121    0.010431    0.002629       
   LBFGS   117      5    0.129592    0.032457   0.004738  31.5897    0.018637    0.004134       
   LBFGS   118      5    0.129255    0.031477   0.003715  31.5902    0.014015    0.003964       
   LBFGS   119      5    0.128871    0.018881   0.002744  31.5911    0.010435    0.002617       
   LBFGS   120      5    0.127711    0.017790   0.003002  31.6334    0.010610    0.002579       
   LBFGS   121      5    0.126670    0.022308   0.003190  31.7558    0.017069    0.004385       
   LBFGS   122      5    0.126247    0.012109   0.002306  31.7531    0.010487    0.003263       
   LBFGS   123      5    0.125979    0.008186   0.001819  31.7507    0.010529    0.002930       
   LBFGS   124      5    0.124327    0.019234   0.002297  31.7458    0.010737    0.002769       
   LBFGS   125      5    0.122256    0.025314   0.003886  31.7658    0.010716    0.002930       
   LBFGS   126      5    0.118797    0.026649   0.004288  31.8308    0.011165    0.003098       
   LBFGS   127      5    0.118248    0.028840   0.003867  31.8246    0.011255    0.002878       
   LBFGS   128      5    0.117732    0.019180   0.002770  31.8250    0.011321    0.002730       
   LBFGS   129      5    0.115847    0.009577   0.001948  31.8563    0.011576    0.002711       
   LBFGS   130      5    0.113766    0.024935   0.003419  31.8985    0.011857    0.003095       
   LBFGS   131      5    0.110460    0.029209   0.004073  31.9696    0.011999    0.003487       
   LBFGS   132      5    0.106566    0.033562   0.004650  32.0504    0.011920    0.003704       

Possible intermediate minimum found at image(s): 1 
  => have a look at the .interp file.
  => it is often a good idea to divide the path calculation into smaller fragments. 

   LBFGS   133      5    0.105624    0.031816   0.004244  32.0103    0.012024    0.003425       
   LBFGS   134      5    0.104793    0.027211   0.003395  31.9816    0.012131    0.003331       
   LBFGS   135      5    0.101349    0.016054   0.002871  31.9288    0.012700    0.003296       
   LBFGS   136      5    0.100393    0.028852   0.003582  31.9340    0.012795    0.003311       
   LBFGS   137      5    0.099457    0.023293   0.003088  31.9390    0.012924    0.003356       
   LBFGS   138      5    0.095449    0.013138   0.002490  31.9715    0.013475    0.003513       
   LBFGS   139      5    0.094001    0.029675   0.003916  31.9660    0.013524    0.003574       
   LBFGS   140      5    0.092479    0.026499   0.003612  31.9653    0.013578    0.003626       
   LBFGS   141      5    0.087516    0.021247   0.003419  31.9862    0.013538    0.003818       
   LBFGS   142      5    0.086300    0.030747   0.003903  32.0030    0.013593    0.003833       
   LBFGS   143      5    0.085145    0.023745   0.003228  32.0161    0.013597    0.003845       
   LBFGS   144      5    0.079691    0.014250   0.002589  32.0741    0.013744    0.004051       
   LBFGS   145      5    0.075722    0.042036   0.005267  32.0472    0.013958    0.004251       
   LBFGS   146      5    0.071871    0.041419   0.004029  32.0540    0.013992    0.004386       
   LBFGS   147      5    0.065185    0.052836   0.004656  32.1001    0.014292    0.004737       
   LBFGS   148      5    0.062868    0.022405   0.003163  32.1210    0.014376    0.004825       
   LBFGS   149      5    0.058602    0.035678   0.004061  32.1755    0.014839    0.005060       
   LBFGS   150      5    0.054462    0.040645   0.003820  32.2024    0.015048    0.005214       
   LBFGS   151      5    0.045076    0.039943   0.004145  32.2855    0.015069    0.005481       
   LBFGS   152      5    0.041773    0.024093   0.003005  32.2795    0.015012    0.005395       
   LBFGS   153      5    0.037120    0.029038   0.003573  32.3281    0.014714    0.005369       
   LBFGS   154      5    0.028293    0.033382   0.004584  32.4618    0.015747    0.005276       
   LBFGS   155      6    0.026575    0.066063   0.005172  32.4711    0.021732    0.005521       
   LBFGS   156      6    0.024695    0.056056   0.004927  32.5249    0.010936    0.004180       
   LBFGS   157      6    0.022360    0.050091   0.005602  32.5862    0.009846    0.004440       
   LBFGS   158      6    0.021500    0.063528   0.004725  32.5144    0.019895    0.004891       
   LBFGS   159      6    0.020259    0.032637   0.003732  32.4960    0.011844    0.004003       
   LBFGS   160      5    0.021673    0.022605   0.003181  32.4491    0.011603    0.003583       
   LBFGS   161      5    0.023332    0.050940   0.004205  32.4492    0.020040    0.004502       
   LBFGS   162      5    0.022431    0.042508   0.003339  32.4604    0.010947    0.003023       
   LBFGS   163      5    0.022115    0.037286   0.002995  32.4813    0.006502    0.002621       

Possible intermediate minimum found at image(s): 1 
  => have a look at the .interp file.
  => it is often a good idea to divide the path calculation into smaller fragments. 

   LBFGS   164      5    0.022474    0.027603   0.002945  32.5661    0.018104    0.004456       
   LBFGS   165      5    0.021802    0.069592   0.004898  32.6271    0.007698    0.002327       
   LBFGS   166      5    0.021855    0.024465   0.002495  32.6668    0.012284    0.002738       
   LBFGS   167      5    0.022964    0.037075   0.004249  32.8826    0.027652    0.005640       
   LBFGS   168      5    0.021129    0.048741   0.003449  32.8040    0.008639    0.002497       
   LBFGS   169      5    0.020768    0.008433   0.001421  32.7838    0.005270    0.001904       
   LBFGS   170      5    0.020652    0.023392   0.002161  32.7820    0.012583    0.003037       
   LBFGS   171      5    0.020189    0.034044   0.002721  32.8112    0.014476    0.003493       
   LBFGS   172      5    0.018615    0.046113   0.003608  32.9400    0.013867    0.003516       
   LBFGS   173      5    0.018051    0.028666   0.002500  32.9595    0.005069    0.001970       
   LBFGS   174      5    0.017848    0.020555   0.001938  32.9803    0.004813    0.001674       
   LBFGS   175      5    0.017982    0.030560   0.003660  33.2251    0.020112    0.005150       
   LBFGS   176      5    0.016327    0.028764   0.002516  33.1508    0.004306    0.001692       
   LBFGS   177      5    0.016236    0.015552   0.001817  33.1572    0.010092    0.002520       
   LBFGS   178      5    0.016090    0.026607   0.002548  33.1954    0.012386    0.003040       
   LBFGS   179      5    0.015163    0.036480   0.003106  33.3439    0.007995    0.002661       
   LBFGS   180      5    0.013847    0.047665   0.004268  33.6373    0.008599    0.002672       
   LBFGS   181      5    0.013430    0.067635   0.005117  33.6643    0.005327    0.001678       
   LBFGS   182      5    0.013282    0.040089   0.003763  33.7020    0.003843    0.001611       
   LBFGS   183      5    0.013118    0.019120   0.001980  33.7794    0.004255    0.001675       
   LBFGS   184      5    0.012916    0.024939   0.002173  33.8647    0.003993    0.001591       
   LBFGS   185      5    0.012303    0.033494   0.003564  34.1230    0.003562    0.001389       
   LBFGS   186      5    0.012182    0.036600   0.002994  34.1116    0.003558    0.001332       
   LBFGS   187      5    0.012076    0.016040   0.001716  34.1225    0.003550    0.001276       
   LBFGS   188      5    0.011621    0.018517   0.001857  34.2299    0.003488    0.001267       
   LBFGS   189      5    0.011001    0.040558   0.003142  34.4295    0.003360    0.001251       
   LBFGS   190      5    0.010306    0.032876   0.003348  34.6888    0.003331    0.001278       
   LBFGS   191      5    0.010177    0.052207   0.004228  34.7385    0.003799    0.001218       
   LBFGS   192      5    0.010096    0.017871   0.002151  34.7735    0.003054    0.001105       
   LBFGS   193      5    0.009903    0.006638   0.001100  34.8775    0.002952    0.001058       
   LBFGS   194      5    0.009740    0.018138   0.001481  34.9508    0.002911    0.001042       
   LBFGS   195      5    0.008861    0.026924   0.003339  35.3666    0.002794    0.001111       
   LBFGS   196      5    0.008041    0.046254   0.003818  35.7053    0.003123    0.001034       
   LBFGS   197      5    0.007088    0.038487   0.004050  36.1394    0.003934    0.001078       
   LBFGS   198      5    0.007030    0.028344   0.002980  36.1086    0.002397    0.000991       
   LBFGS   199      5    0.006989    0.014890   0.001948  36.1076    0.002230    0.000888       
   LBFGS   200      5    0.006706    0.029264   0.003364  36.2557    0.004052    0.001043       
   LBFGS   201      5    0.006658    0.018376   0.002317  36.2593    0.002092    0.000901       
   LBFGS   202      5    0.006625    0.011009   0.001692  36.2673    0.002109    0.000847       
   LBFGS   203      5    0.006413    0.025175   0.002677  36.3908    0.003115    0.000914       
   LBFGS   204      5    0.006365    0.024094   0.002269  36.4001    0.002133    0.000874       
   LBFGS   205      5    0.006318    0.020215   0.001940  36.4183    0.002081    0.000857       
   LBFGS   206      5    0.006065    0.015049   0.001869  36.5486    0.002011    0.000763       
   LBFGS   207      5    0.005975    0.017955   0.001915  36.5804    0.001984    0.000751       

                                .--------------------.
          ----------------------| CI-NEB convergence |-------------------------
          Item                value                   Tolerance       Converged
          ---------------------------------------------------------------------
          RMS(Fp)             0.0019147078            0.0100000000      YES
          MAX(|Fp|)           0.0179549546            0.0200000000      YES
          RMS(FCI)            0.0007508001            0.0010000000      YES
          MAX(|FCI|)          0.0019841739            0.0020000000      YES
          ---------------------------------------------------------------------

The elastic band and climbing image have converged successfully to a MEP in 207 iterations!


                    *********************H U R R A Y*********************
                    ***        THE NEB OPTIMIZATION HAS CONVERGED     ***
                    *****************************************************



---------------------------------------------------------------
                         PATH SUMMARY              
---------------------------------------------------------------
All forces in Eh/Bohr.

Image Dist.(Ang.)    E(Eh)   dE(kcal/mol)  max(|Fp|)  RMS(Fp)
  0     0.000    -990.26642      0.00       0.04181   0.01131
  1     3.990    -990.27317     -4.24       0.00096   0.00020
  2     7.792    -990.27361     -4.51       0.00626   0.00127
  3    11.264    -990.27381     -4.64       0.01795   0.00399
  4    12.452    -990.26550      0.58       0.00567   0.00148
  5    12.737    -990.26044      3.75       0.00197   0.00075 <= CI
  6    12.945    -990.26520      0.76       0.00630   0.00207
  7    13.731    -990.28728    -13.09       0.00529   0.00170
  8    16.408    -990.30420    -23.71       0.01212   0.00246
  9    19.358    -990.30552    -24.54       0.00441   0.00124

Straight line distance between images along the path:
        D( 0- 1) =   3.9900 Ang.
        D( 1- 2) =   3.8017 Ang.
        D( 2- 3) =   3.4720 Ang.
        D( 3- 4) =   1.1886 Ang.
        D( 4- 5) =   0.2848 Ang.
        D( 5- 6) =   0.2074 Ang.
        D( 6- 7) =   0.7862 Ang.
        D( 7- 8) =   2.6776 Ang.
        D( 8- 9) =   2.9493 Ang.

---------------------------------------------------------------
               INFORMATION ABOUT SADDLE POINT     
---------------------------------------------------------------

Climbing image                            ....  5 
Energy                                    ....  -990.26044367 Eh
Max. abs. force                           ....  1.9842e-03 Eh/Bohr

-----------------------------------------
  SADDLE POINT (ANGSTROEM)
-----------------------------------------
C      0.615614     0.214724    -0.173668 
N      1.744059    -0.085663     0.476694 
C      1.865214     0.238281     1.756284 
C      0.925959     0.978105     2.475637 
C     -0.255622     1.282796     1.835102 
C     -0.437395     0.889466     0.513008 
N     -1.708732     1.119510    -0.093582 
O     -1.825184     0.993107    -1.302506 
O     -2.660095     1.413672     0.631138 
F      0.828695     0.510214    -1.486254 
H      2.789011    -0.071721     2.237540 
H      1.133825     1.315013     3.483299 
H     -1.036786     1.850054     2.328355 
C     -0.390694    -2.132647    -2.662438 
H     -0.701708    -1.202505    -3.147727 
H     -1.098857    -2.910282    -2.966606 
H      0.588169    -2.411496    -3.064711 
S     -0.375471    -1.990629    -0.839564 

-----------------------------------------
  FORCES (Eh/Bohr)
-----------------------------------------
C      0.000208     0.000519    -0.000453 
N      0.000537     0.000985    -0.001073 
C      0.000295     0.000126    -0.000581 
C     -0.000332    -0.000955    -0.000350 
C     -0.000292    -0.000727    -0.000168 
C      0.000133     0.000245    -0.000801 
N      0.000150     0.000551    -0.000393 
O      0.000416    -0.000094    -0.000965 
O      0.000419     0.000588    -0.001043 
F     -0.000450    -0.000718    -0.000613 
H      0.000572     0.000519    -0.000796 
H     -0.000655    -0.001855     0.000326 
H     -0.000502    -0.001404     0.000043 
C     -0.000068     0.000443     0.001305 
H     -0.000065     0.000835     0.001984 
H      0.000083     0.000534     0.000640 
H      0.000146     0.000918     0.001454 
S     -0.000472    -0.000621     0.001418 

-----------------------------------------
  UNIT TANGENT
-----------------------------------------
C     -0.248746    -0.541882    -0.115572 
N     -0.078313    -0.246056     0.009574 
C     -0.027610    -0.057121    -0.078765 
C     -0.036048    -0.025039    -0.037106 
C     -0.006910    -0.025476    -0.041788 
C     -0.073539    -0.118403    -0.042264 
N      0.002487    -0.048152     0.031430 
O     -0.044939    -0.059336    -0.001603 
O     -0.028571     0.049230     0.003716 
F      0.108119     0.150398    -0.040984 
H      0.013871     0.019927    -0.057716 
H      0.016385     0.016886    -0.060031 
H      0.017364     0.034149    -0.053555 
C      0.075994     0.145934     0.083100 
H      0.007478     0.053872    -0.029785 
H      0.035990     0.079315     0.281061 
H      0.031621     0.051297     0.052117 
S      0.235369     0.520458     0.098170 
 => Unit tangent is an approximation to the TS mode at the saddle point

Next a TS optimization is performed on the CI from the NEB run.

         *************************************************************
         *                       TS OPTIMIZATION                     *
         *************************************************************


Following output files will be written:
Converged TS will be written to          ....  TS_search_opt_without_h_NEB-TS_converged.xyz
                                         ....  TS_search_opt_without_h.xyz
Current trajectory will be written to    ....  TS_search_opt_without_h_trj.xyz
Initial Hessian will be stored in        ....  TS_search_opt_without_h.appr.hess
Geometry optimization settings:
Update method            Update   .... Bofill
Choice of coordinates    CoordSys .... Z-matrix Internals
Initial Hessian          InHess   .... Read

Convergence Tolerances:
Energy Change            TolE     ....  5.0000e-06 Eh
Max. Gradient            TolMAXG  ....  3.0000e-04 Eh/bohr
RMS Gradient             TolRMSG  ....  1.0000e-04 Eh/bohr
Max. Displacement        TolMAXD  ....  4.0000e-03 bohr
RMS Displacement         TolRMSD  ....  2.0000e-03 bohr
Strict Convergence                ....  False
------------------------------------------------------------------------------
                        ORCA OPTIMIZATION COORDINATE SETUP
------------------------------------------------------------------------------

The optimization will be done in new redundant internal coordinates
Making redundant internal coordinates   ...  (new redundants) done
Following TS mode number                ...     0
TS-active-atoms for coordinate setup... 0 17 
Evaluating the initial hessian          ... (Reading Exact Hessian)...  
InHessName: TS_search_opt_without_h.appr.hess	The file <TS_search_opt_without_h.appr.hess> is opened as a .hess file
done
done
Diagonalizing the Hessian               .... done
Dimension of the hessian                .... 181
Lowest eigenvalues of the non projected Hessian:
 -0.008070119 -0.000000000 -0.000000000 -0.000000000 -0.000000000
done
Evaluating the coordinates              ...  done
Calculating the B-matrix                .... done
Calculating the G-matrix                .... done
Diagonalizing the G-matrix              .... done
The first mode is                       ....  133
The number of degrees of freedom        ....   48

    -----------------------------------------------------------------
                    Redundant Internal Coordinates


    -----------------------------------------------------------------
         Definition                    Initial Value    d2E/dq (diagonal element)
    -----------------------------------------------------------------
      1. B(N   1,C   0)                  1.3366         0.192560   
      2. B(C   2,C   0)                  2.2993         0.122529   
      3. B(C   2,N   1)                  1.3255         0.321570   
      4. B(C   3,C   0)                  2.7745         0.102734   
      5. B(C   3,C   2)                  1.3954         0.442890   
      6. B(C   4,C   3)                  1.3781         0.488266   
      7. B(C   4,C   0)                  2.4362         0.108324   
      8. B(C   5,C   0)                  1.4268         0.133119   
      9. B(C   5,C   4)                  1.3913         0.286571   
     10. B(N   6,C   0)                  2.4955         0.086107   
     11. B(N   6,C   5)                  1.4273         0.232042   
     12. B(O   7,C   0)                  2.7996         0.066762   
     13. B(O   7,N   6)                  1.2211         0.675062   
     14. B(O   8,N   6)                  1.2316         0.895171   
     15. B(F   9,C   0)                  1.3622         0.286011   
     16. B(H  10,C   2)                  1.0868         0.364781   
     17. B(H  11,C   3)                  1.0826         0.370565   
     18. B(H  12,C   4)                  1.0841         0.368176   
     19. B(C  13,F   9)                  3.1393         0.033547   
     20. B(H  14,C  13)                  1.0943         0.204856   
     21. B(H  14,F   9)                  2.8348         0.030743   
     22. B(H  14,O   7)                  3.0802         0.041706   
     23. B(H  15,C  13)                  1.0949         0.234285   
     24. B(H  16,C  13)                  1.0944         0.241076   
     25. B(S  17,O   7)                  3.3494         0.013351   
     26. B(S  17,N   6)                  3.4651         0.028553   
     27. B(S  17,F   9)                  2.8500         0.046911   
     28. B(S  17,C   5)                  3.1825         0.045121   
     29. B(S  17,N   1)                  3.1391         0.064972   
     30. B(S  17,C   0)                  2.5078         0.001797   
     31. B(S  17,H  16)                  2.4611         0.057752   
     32. B(S  17,C  13)                  1.8285         0.087046   
     33. B(S  17,H  15)                  2.4276         0.072642   
     34. B(S  17,H  14)                  2.4607         0.061667   
     35. A(N   1,C   0,F   9)          112.6769         0.010723   
     36. A(C   5,C   0,F   9)          118.4646         0.009928   
     37. A(N   1,C   0,C   5)          119.6825         0.019341   
     38. A(C   5,C   0,S  17)          104.5960         0.006400   
     39. A(N   1,C   0,S  17)          105.3794         0.008305   
     40. A(F   9,C   0,S  17)           89.8121         0.006779   
     41. A(C   2,N   1,S  17)          127.9384         0.018745   
     42. A(C   0,N   1,C   2)          119.4692         0.025447   
     43. A(C   0,N   1,S  17)           50.3808         0.004711   
     44. A(N   1,C   2,H  10)          115.8150         0.193535   
     45. A(N   1,C   2,C   3)          124.4529         0.058224   
     46. A(C   3,C   2,H  10)          119.6781         0.193156   
     47. A(C   4,C   3,H  11)          121.8983         0.194229   
     48. A(C   2,C   3,C   4)          117.0481         0.065013   
     49. A(C   2,C   3,H  11)          121.0368         0.193554   
     50. A(C   3,C   4,H  12)          121.4668         0.191822   
     51. A(C   3,C   4,C   5)          119.4183         0.054372   
     52. A(C   5,C   4,H  12)          119.0872         0.191340   
     53. A(C   0,C   5,N   6)          121.9434         0.031902   
     54. A(C   0,C   5,C   4)          119.6448         0.022344   
     55. A(N   6,C   5,S  17)           89.0012         0.014225   
     56. A(C   4,C   5,S  17)          131.0845         0.016413   
     57. A(C   0,C   5,S  17)           49.6922         0.002955   
     58. A(C   4,C   5,N   6)          118.3376         0.041896   
     59. A(O   7,N   6,O   8)          122.2514         0.249583   
     60. A(C   5,N   6,O   8)          118.4551         0.242884   
     61. A(C   5,N   6,O   7)          119.2765         0.064217   
     62. A(C   0,F   9,S  17)           61.6353         0.004727   
     63. A(C   0,F   9,C  13)           96.7560         0.007255   
     64. A(C  13,F   9,S  17)           35.1312         0.002876   
     65. A(F   9,C  13,H  16)           90.2750         0.021431   
     66. A(H  16,C  13,S  17)          112.2586         0.036474   
     67. A(H  15,C  13,S  17)          109.7256         0.010883   
     68. A(H  14,C  13,S  17)          112.2394         0.028328   
     69. A(F   9,C  13,S  17)           63.7592         0.006585   
     70. A(H  15,C  13,H  16)          107.1832         0.041134   
     71. A(F   9,C  13,H  15)          162.4151         0.015517   
     72. A(H  14,C  13,H  16)          107.9255         0.031202   
     73. A(F   9,C  13,H  14)           63.9569         0.012580   
     74. A(H  14,C  13,H  15)          107.2589         0.014498   
     75. A(C   0,S  17,C  13)          109.6520         0.012246   
     76. A(C   5,S  17,F   9)           46.4130         0.009171   
     77. A(N   1,S  17,F   9)           43.7264         0.010510   
     78. A(C   0,S  17,F   9)           28.5526         0.009963   
     79. A(F   9,S  17,C  13)           81.1097         0.008361   
     80. A(N   1,S  17,C   5)           44.4171         0.006645   
     81. A(C   0,S  17,C   5)           25.7119         0.003785   
     82. A(C   5,S  17,C  13)          119.5929         0.012429   
     83. A(C   0,S  17,N   1)           24.2398         0.005151   
     84. A(N   1,S  17,C  13)          118.0855         0.012231   
     85. D(S  17,N   1,C   0,F   9)    -96.3870         0.008398   
     86. D(C   2,N   1,C   0,F   9)    146.9348         0.011601   
     87. D(S  17,N   1,C   0,C   5)    117.2333         0.007619   
     88. D(C   2,N   1,C   0,S  17)   -116.6782         0.012374   
     89. D(C   2,N   1,C   0,C   5)      0.5551         0.010627   
     90. D(C   3,C   2,N   1,S  17)    -66.0117         0.012726   
     91. D(H  10,C   2,N   1,C   0)    177.4579         0.013127   
     92. D(H  10,C   2,N   1,S  17)    116.6809         0.015129   
     93. D(C   3,C   2,N   1,C   0)     -5.2347         0.013413   
     94. D(H  11,C   3,C   2,H  10)      4.7524         0.013411   
     95. D(C   4,C   3,C   2,H  10)   -176.7131         0.011990   
     96. D(C   4,C   3,C   2,N   1)      6.0769         0.011328   
     97. D(H  11,C   3,C   2,N   1)   -172.4576         0.011515   
     98. D(C   5,C   4,C   3,C   2)     -2.2208         0.008971   
     99. D(H  12,C   4,C   3,H  11)     -1.7681         0.012193   
    100. D(C   5,C   4,C   3,H  11)    176.3001         0.010926   
    101. D(H  12,C   4,C   3,C   2)    179.7110         0.009313   
    102. D(S  17,C   5,C   4,H  12)   -123.2804         0.010966   
    103. D(N   6,C   5,C   4,C   3)    174.9594         0.008206   
    104. D(S  17,C   5,C   4,C   3)     58.6051         0.010021   
    105. D(S  17,C   5,C   0,F   9)     97.8931         0.006992   
    106. D(S  17,C   5,C   0,N   1)   -117.6374         0.008570   
    107. D(N   6,C   5,C   4,H  12)     -6.9261         0.008890   
    108. D(N   6,C   5,C   0,S  17)    -56.2309         0.004417   
    109. D(C   0,C   5,C   4,C   3)     -1.9688         0.009740   
    110. D(C   0,C   5,C   4,H  12)    176.1457         0.009926   
    111. D(C   4,C   5,C   0,N   1)      2.9455         0.009658   
    112. D(C   4,C   5,C   0,F   9)   -141.5240         0.010720   
    113. D(N   6,C   5,C   0,N   1)   -173.8682         0.006388   
    114. D(N   6,C   5,C   0,F   9)     41.6622         0.006424   
    115. D(C   4,C   5,C   0,S  17)    120.5829         0.009476   
    116. D(O   8,N   6,C   5,S  17)    123.8439         0.008578   
    117. D(O   8,N   6,C   5,C   4)    -13.6628         0.010499   
    118. D(O   8,N   6,C   5,C   0)    163.1910         0.009151   
    119. D(O   7,N   6,C   5,S  17)    -54.6917         0.009316   
    120. D(O   7,N   6,C   5,C   4)    167.8016         0.012748   
    121. D(O   7,N   6,C   5,C   0)    -15.3446         0.011836   
    122. D(C  13,F   9,C   0,C   5)   -105.6642         0.006558   
    123. D(C  13,F   9,C   0,S  17)      0.8873         0.000995   
    124. D(S  17,F   9,C   0,C   5)   -106.5516         0.006680   
    125. D(C  13,F   9,C   0,N   1)    107.5096         0.009027   
    126. D(S  17,F   9,C   0,N   1)    106.6223         0.009772   
    127. D(S  17,C  13,F   9,C   0)     -1.3569         0.002307   
    128. D(H  16,C  13,F   9,S  17)   -114.8313         0.025890   
    129. D(H  14,C  13,F   9,S  17)    135.2784         0.016773   
    130. D(H  14,C  13,F   9,C   0)    133.9214         0.018206   
    131. D(H  15,C  13,F   9,C   0)     70.5920         0.010631   
    132. D(H  16,C  13,F   9,C   0)   -116.1882         0.025227   
    133. D(H  15,C  13,F   9,S  17)     71.9489         0.012598   
    134. D(C   5,S  17,N   1,C   0)    -29.6579         0.007740   
    135. D(C   0,S  17,N   1,C   2)     99.4647         0.021615   
    136. D(C  13,S  17,N   1,C   2)    174.5913         0.021765   
    137. D(F   9,S  17,C   0,C   5)    119.4497         0.010445   
    138. D(F   9,S  17,C   0,N   1)   -113.5127         0.011512   
    139. D(C   5,S  17,C   0,F   9)   -119.4497         0.010445   
    140. D(C   5,S  17,C   0,N   1)    127.0376         0.014522   
    141. D(N   1,S  17,C   0,F   9)    113.5127         0.011512   
    142. D(C  13,S  17,N   1,C   0)     75.1266         0.011414   
    143. D(N   1,S  17,C   0,C   5)   -127.0376         0.014522   
    144. D(C  13,S  17,C   0,F   9)     -1.6066         0.003229   
    145. D(C  13,S  17,C   0,C   5)    117.8431         0.008652   
    146. D(C   5,S  17,N   1,C   2)     69.8067         0.021768   
    147. D(C  13,S  17,C   0,N   1)   -115.1193         0.009149   
    148. D(F   9,S  17,C  13,H  16)     78.6984         0.011693   
    149. D(F   9,S  17,C  13,H  15)   -162.2325         0.013194   
    150. D(C   5,S  17,C  13,F   9)     26.9555         0.004320   
    151. D(C   5,S  17,C  13,H  16)    105.6539         0.013345   
    152. D(C   5,S  17,C  13,H  15)   -135.2770         0.013655   
    153. D(N   1,S  17,C  13,F   9)    -24.1422         0.005953   
    154. D(N   1,S  17,C  13,H  16)     54.5561         0.014023   
    155. D(N   1,S  17,C  13,H  15)    173.6253         0.015966   
    156. D(C   0,S  17,C  13,F   9)      0.7772         0.000777   
    157. D(C   0,S  17,C  13,H  16)     79.4755         0.011452   
    158. D(C   0,S  17,C  13,H  15)   -161.4553         0.012460   
    159. D(C   0,S  17,C  13,H  14)    -42.3034         0.007462   
    160. D(C   5,S  17,F   9,C  13)   -147.0310         0.007116   
    161. D(C   5,S  17,F   9,C   0)     31.4376         0.008360   
    162. D(N   1,S  17,F   9,C  13)    148.5308         0.009731   
    163. D(N   1,S  17,F   9,C   0)    -33.0006         0.011071   
    164. D(C   0,S  17,F   9,C  13)   -178.4686         0.002950   
    165. D(C  13,S  17,F   9,C   0)    178.4686         0.002950   
    166. D(F   9,S  17,C   5,N   6)    100.0568         0.016671   
    167. D(F   9,S  17,C   5,C   4)   -132.0174         0.023935   
    168. D(F   9,S  17,C   5,C   0)    -35.0724         0.009866   
    169. D(N   1,S  17,C   5,N   6)    163.0504         0.015413   
    170. D(N   1,S  17,C  13,H  14)    -67.2228         0.010087   
    171. D(N   1,S  17,C   5,C   4)    -69.0237         0.021422   
    172. D(N   1,S  17,C   5,C   0)     27.9213         0.007578   
    173. D(C   0,S  17,C   5,N   6)    135.1291         0.014037   
    174. D(C   5,S  17,C  13,H  14)    -16.1250         0.009276   
    175. D(C   0,S  17,C   5,C   4)    -96.9450         0.018963   
    176. D(C  13,S  17,C   5,N   6)     61.8646         0.013994   
    177. D(C  13,S  17,C   5,C   4)   -170.2096         0.018682   
    178. D(F   9,S  17,C  13,H  14)    -43.0806         0.007282   
    179. D(C  13,S  17,C   5,C   0)    -73.2646         0.009378   
    180. D(F   9,S  17,N   1,C   2)    138.8160         0.028405   
    181. D(F   9,S  17,N   1,C   0)     39.3513         0.011351   
    -----------------------------------------------------------------

Number of atoms                         .... 18
Number of degrees of freedom            .... 181

         *************************************************************
         *                GEOMETRY OPTIMIZATION CYCLE   1            *
         *************************************************************


           ************************************************************
           *        Program running with 24 parallel MPI-processes    *
           *              working on a common directory               *
           ************************************************************
------------------------------------------------------------------------------
                           ORCA GTO INTEGRAL CALCULATION
                           -- RI-GTO INTEGRALS CHOSEN --
------------------------------------------------------------------------------
------------------------------------------------------------------------------
                   ___                                                        
                  /   \      - P O W E R E D   B Y -                         
                 /     \                                                     
                 |  |  |   _    _      __       _____    __    __             
                 |  |  |  | |  | |    /  \     |  _  \  |  |  /  |          
                  \  \/   | |  | |   /    \    | | | |  |  | /  /          
                 / \  \   | |__| |  /  /\  \   | |_| |  |  |/  /          
                |  |  |   |  __  | /  /__\  \  |    /   |      \           
                |  |  |   | |  | | |   __   |  |    \   |  |\   \          
                \     /   | |  | | |  |  |  |  | |\  \  |  | \   \       
                 \___/    |_|  |_| |__|  |__|  |_| \__\ |__|  \__/        
                                                                              
                      - O R C A' S   B I G   F R I E N D -                    
                                      &                                       
                       - I N T E G R A L  F E E D E R -                       
                                                                              
 v1 FN, 2020, v2 2021                                                         
------------------------------------------------------------------------------


Reading SHARK input file TS_search_opt_without_h.SHARKINP.tmp ... ok
----------------------
SHARK INTEGRAL PACKAGE
----------------------

Number of atoms                             ...     18
Number of basis functions                   ...    314
Number of shells                            ...    154
Maximum angular momentum                    ...      2
Integral batch strategy                     ... SHARK/LIBINT Hybrid
RI-J (if used) integral strategy            ... SPLIT-RIJ (Revised 2003 algorithm where possible)
Printlevel                                  ...      1
Contraction scheme used                     ... SEGMENTED contraction
Coulomb Range Separation                    ... NOT USED
Exchange Range Separation                   ... Long Range
   Mu parameter                             ...  0.300000
   Scaling (regular/separated)              ...  0.157706  0.842294
Finite Nucleus Model                        ... NOT USED
Auxiliary Coulomb fitting basis             ... AVAILABLE
   # of basis functions in Aux-J            ...    656
   # of shells in Aux-J                     ...    212
   Maximum angular momentum in Aux-J        ...      4
Auxiliary J/K fitting basis                 ... NOT available
Auxiliary Correlation fitting basis         ... NOT available
Auxiliary 'external' fitting basis          ... NOT available
Integral threshold                          ...     2.500000e-11
Primitive cut-off                           ...     2.500000e-12
Primitive pair pre-selection threshold      ...     2.500000e-12

Calculating pre-screening integrals         ... done (  0.1 sec) Dimension = 154
Organizing shell pair data                  ... done (  0.1 sec)
Shell pair information
Total number of shell pairs                 ...     11935
Shell pairs after pre-screening             ...     10259
Total number of primitive shell pairs       ...     38500
Primitive shell pairs kept                  ...     23423
          la=0 lb=0:   3136 shell pairs
          la=1 lb=0:   4187 shell pairs
          la=1 lb=1:   1430 shell pairs
          la=2 lb=0:    846 shell pairs
          la=2 lb=1:    590 shell pairs
          la=2 lb=2:     70 shell pairs

Calculating one electron integrals          ... done (  0.0 sec)
Calculating RI/J V-Matrix + Cholesky decomp.... done (  0.1 sec)
Calculating Nuclear repulsion               ... done (  0.0 sec) ENN=    811.358521792329 Eh

SHARK setup successfully completed in   0.4 seconds

Maximum memory used throughout the entire GTOINT-calculation: 17.0 MB


           ************************************************************
           *        Program running with 24 parallel MPI-processes    *
           *              working on a common directory               *
           ************************************************************
-------------------------------------------------------------------------------
                                 ORCA SCF
-------------------------------------------------------------------------------

------------
SCF SETTINGS
------------
Hamiltonian:
 Density Functional     Method          .... DFT(GTOs)
 Exchange Functional    Exchange        .... WB97X
 Correlation Functional Correlation     .... WB97X
 Gradients option       PostSCFGGA      .... off
 Hybrid DFT is turned on
   Fraction HF Exchange ScalHFX         ....  0.157706
   Scaling of DF-GGA-X  ScalDFX         ....  0.000000
   Scaling of DF-GGA-C  ScalDFC         ....  1.000000
   Scaling of DF-LDA-C  ScalLDAC        ....  1.000000
   Perturbative correction              ....  0.000000
   Density functional embedding theory  .... OFF
 Long-range corrected/Screened/Range-Separated Hybrid DFT is turned on
   Amount of maximum screened exact exchange              ....  0.842294
   Range separation parameter mu (erf(mu*r12)/r12)        ....  0.300000
 RI-approximation to the Coulomb term is turned on
   Number of AuxJ basis functions       .... 656
   RIJ-COSX (HFX calculated with COS-X)).... on


General Settings:
 Integral files         IntName         .... TS_search_opt_without_h
 Hartree-Fock type      HFTyp           .... RHF
 Total Charge           Charge          ....   -1
 Multiplicity           Mult            ....    1
 Number of Electrons    NEL             ....   98
 Basis Dimension        Dim             ....  314
 Nuclear Repulsion      ENuc            ....    811.3585217923 Eh

Convergence Acceleration:
 DIIS                   CNVDIIS         .... on
   Start iteration      DIISMaxIt       ....    12
   Startup error        DIISStart       ....  0.200000
   # of expansion vecs  DIISMaxEq       ....     5
   Bias factor          DIISBfac        ....   1.050
   Max. coefficient     DIISMaxC        ....  10.000
 Trust-Rad. Augm. Hess. CNVTRAH         .... auto
   Auto Start mean grad. ratio tolernc. ....  1.125000
   Auto Start start iteration           ....     1
   Auto Start num. interpolation iter.  ....    10
   Max. Number of Micro iterations      ....    16
   Max. Number of Macro iterations      .... Maxiter - #DIIS iter
   Number of Davidson start vectors     ....     2
   Converg. threshold I  (grad. norm)   ....   1.000e-05
   Converg. threshold II (energy diff.) ....   1.000e-08
   Grad. Scal. Fac. for Micro threshold ....   0.100
   Minimum threshold for Micro iter.    ....   0.010
   NR start threshold (gradient norm)   ....   0.001
   Initial trust radius                 ....   0.400
   Minimum AH scaling param. (alpha)    ....   1.000
   Maximum AH scaling param. (alpha)    .... 1000.000
   Orbital update algorithm             .... Taylor
   White noise on init. David. guess    .... on
   Maximum white noise                  ....   0.010
   Quad. conv. algorithm                .... NR
 SOSCF                  CNVSOSCF        .... on
   Start iteration      SOSCFMaxIt      ....   150
   Startup grad/error   SOSCFStart      ....  0.003300
 Level Shifting         CNVShift        .... on
   Level shift para.    LevelShift      ....    0.2500
   Turn off err/grad.   ShiftErr        ....    0.0010
 Zerner damping         CNVZerner       .... off
 Static damping         CNVDamp         .... on
   Fraction old density DampFac         ....    0.7000
   Max. Damping (<1)    DampMax         ....    0.9800
   Min. Damping (>=0)   DampMin         ....    0.0000
   Turn off err/grad.   DampErr         ....    0.1000
 Fernandez-Rico         CNVRico         .... off

SCF Procedure:
 Maximum # iterations   MaxIter         ....   125
 SCF integral mode      SCFMode         .... Direct
   Integral package                     .... SHARK and LIBINT hybrid scheme
 Reset frequency        DirectResetFreq ....    20
 Integral Threshold     Thresh          ....  2.500e-11 Eh
 Primitive CutOff       TCut            ....  2.500e-12 Eh

Convergence Tolerance:
 Convergence Check Mode ConvCheckMode   .... Total+1el-Energy
 Convergence forced     ConvForced      .... 0
 Energy Change          TolE            ....  1.000e-08 Eh
 1-El. energy change                    ....  1.000e-05 Eh
 Orbital Gradient       TolG            ....  1.000e-05
 Orbital Rotation angle TolX            ....  1.000e-05
 DIIS Error             TolErr          ....  5.000e-07


Diagonalization of the overlap matrix:
Smallest eigenvalue                        ... 2.812e-06
Time for diagonalization                   ...    0.021 sec
Threshold for overlap eigenvalues          ... 1.000e-08
Number of eigenvalues below threshold      ... 0
Time for construction of square roots      ...    0.029 sec
Total time needed                          ...    0.051 sec

---------------------
INITIAL GUESS: MOREAD
---------------------
Guess MOs are being read from file: TS_search_opt_without_h.gbw
Input Geometry matches current geometry (good)
Input basis set matches current basis set (good)
MOs were renormalized
MOs were reorthogonalized (Cholesky)
                      ------------------
                      INITIAL GUESS DONE (   0.0 sec)
                      ------------------
-------------------
DFT GRID GENERATION
-------------------

General Integration Accuracy     IntAcc      ... 4.388
Radial Grid Type                 RadialGrid  ... OptM3 with GC (2021)
Angular Grid (max. ang.)         AngularGrid ... 4 (Lebedev-302)
Angular grid pruning method      GridPruning ... 4 (adaptive)
Weight generation scheme         WeightScheme... Becke
Basis function cutoff            BFCut       ... 1.0000e-11
Integration weight cutoff        WCut        ... 1.0000e-14
Angular grids for H and He will be reduced by one unit
Partially contracted basis set               ... off
Rotationally invariant grid construction     ... off

Total number of grid points                  ...    97660
Total number of batches                      ...     1538
Average number of points per batch           ...       63
Average number of grid points per atom       ...     5426
Time for grid setup =    0.609 sec

--------------------
COSX GRID GENERATION
--------------------

GRIDX 1
-------
General Integration Accuracy     IntAcc      ... 3.816
Radial Grid Type                 RadialGrid  ... OptM3 with GC (2021)
Angular Grid (max. ang.)         AngularGrid ... 1 (Lebedev-50)
Angular grid pruning method      GridPruning ... 4 (adaptive)
Weight generation scheme         WeightScheme... Becke
Basis function cutoff            BFCut       ... 1.0000e-11
Integration weight cutoff        WCut        ... 1.0000e-14
Angular grids for H and He will be reduced by one unit
Partially contracted basis set               ... on
Rotationally invariant grid construction     ... off

Total number of grid points                  ...    12197
Total number of batches                      ...      199
Average number of points per batch           ...       61
Average number of grid points per atom       ...      678
UseSFitting                                  ... on

GRIDX 2
-------
General Integration Accuracy     IntAcc      ... 4.020
Radial Grid Type                 RadialGrid  ... OptM3 with GC (2021)
Angular Grid (max. ang.)         AngularGrid ... 2 (Lebedev-110)
Angular grid pruning method      GridPruning ... 4 (adaptive)
Weight generation scheme         WeightScheme... Becke
Basis function cutoff            BFCut       ... 1.0000e-11
Integration weight cutoff        WCut        ... 1.0000e-14
Angular grids for H and He will be reduced by one unit
Partially contracted basis set               ... on
Rotationally invariant grid construction     ... off

Total number of grid points                  ...    30547
Total number of batches                      ...      487
Average number of points per batch           ...       62
Average number of grid points per atom       ...     1697
UseSFitting                                  ... on

GRIDX 3
-------
General Integration Accuracy     IntAcc      ... 4.338
Radial Grid Type                 RadialGrid  ... OptM3 with GC (2021)
Angular Grid (max. ang.)         AngularGrid ... 3 (Lebedev-194)
Angular grid pruning method      GridPruning ... 4 (adaptive)
Weight generation scheme         WeightScheme... Becke
Basis function cutoff            BFCut       ... 1.0000e-11
Integration weight cutoff        WCut        ... 1.0000e-14
Angular grids for H and He will be reduced by one unit
Partially contracted basis set               ... on
Rotationally invariant grid construction     ... off

Total number of grid points                  ...    67823
Total number of batches                      ...     1069
Average number of points per batch           ...       63
Average number of grid points per atom       ...     3768
UseSFitting                                  ... on

Time for X-Grid setup             =    0.858 sec


--------------------
CPCM SOLVATION MODEL
--------------------
CPCM parameters:
  Epsilon                                         ...      78.3550
  Refrac                                          ...       1.3328
  Rsolv                                           ...       1.3000
  Surface type                                    ... GAUSSIAN VDW
  Epsilon function type                           ...         CPCM
Solvent:                                     ... WATER
SMD-CDS solvent descriptors:
  Soln                                       ...    1.3328
  Soln25                                     ...    1.3323
  Sola                                       ...    0.0000
  Solb                                       ...    0.0000
  Solg                                       ...    0.0000
  Solc                                       ...    0.0000
  Solh                                       ...    0.0000
Radii:
 Radius for C  used is    3.4960 Bohr (=   1.8500 Ang.)
 Radius for N  used is    3.5716 Bohr (=   1.8900 Ang.)
 Radius for O  used is    2.8724 Bohr (=   1.5200 Ang.)
 Radius for F  used is    3.2692 Bohr (=   1.7300 Ang.)
 Radius for H  used is    2.2677 Bohr (=   1.2000 Ang.)
 Radius for S  used is    4.7054 Bohr (=   2.4900 Ang.)
Calculating surface                               ...        done! (  0.0s)
GEPOL surface points                              ...         1078
GEPOL Volume                                      ...    1269.8610
GEPOL Surface-area                                ...     707.4898
Calculating surface distance matrix               ...        done! (  0.0s)
Performing Cholesky decomposition & store         ...        done! (  0.1s)
Overall time for CPCM initialization              ...                 0.1s
--------------
SCF ITERATIONS
--------------
ITER       Energy         Delta-E        Max-DP      RMS-DP      [F,P]     Damp
               ***  Starting incremental Fock matrix formation  ***
                      *** Initiating the SOSCF procedure ***
                      *** Re-Reading the Fockian *** 
                      *** Removing any level shift *** 
ITER      Energy       Delta-E        Grad      Rot      Max-DP    RMS-DP
  0   -990.26526403 -990.2652640284  0.000002  0.000002  0.029643  0.000179
               *** Restarting incremental Fock matrix formation ***
                  ***Gradient check signals convergence***
              ***Rediagonalizing the Fockian in SOSCF/NRSCF***

               *****************************************************
               *                     SUCCESS                       *
               *           SCF CONVERGED AFTER   1 CYCLES          *
               *****************************************************

Old exchange energy                            =    -28.483196905 Eh
New exchange energy                            =    -28.483207215 Eh
Exchange energy change after final integration =     -0.000010311 Eh
Total energy after final integration           =   -990.265274340 Eh
Final COS-X integration done in                =     6.552 sec

SMD CDS free energy correction energy :                 5.22814     Kcal/mol
Total Energy after SMD CDS correction =              -990.256942763 Eh

----------------
TOTAL SCF ENERGY
----------------

Total Energy       :         -990.25694276 Eh          -26946.26133 eV

Components:
Nuclear Repulsion  :          811.35852179 Eh           22078.18781 eV
Electronic Energy  :        -1801.61546455 Eh          -49024.44915 eV
One Electron Energy:        -2987.26070969 Eh          -81287.49649 eV
Two Electron Energy:         1185.64524513 Eh           32263.04734 eV
Max COSX asymmetry :            0.00000415 Eh               0.00011 eV
CPCM Dielectric    :           -0.10344811 Eh              -2.81497 eV
SMD CDS (Gcds)     :            0.00833158 Eh               0.22671 eV

Virial components:
Potential Energy   :        -1978.33732116 Eh          -53833.29534 eV
Kinetic Energy     :          988.08037839 Eh           26887.03401 eV
Virial Ratio       :            2.00220282


DFT components:
N(Alpha)           :       49.000012327106 electrons
N(Beta)            :       49.000012327106 electrons
N(Total)           :       98.000024654212 electrons
E(XC)              :      -73.542361472525 Eh       
DFET-embed. en.    :        0.000000000000 Eh       
CPCM Solvation Model Properties:
Surface-charge          :            0.95152733
Charge-correction       :           -0.00602307 Eh              -0.16390 eV
Free-energy (cav+disp)  :            0.00833158 Eh               0.22671 eV

---------------
SCF CONVERGENCE
---------------

  Last Energy change         ...   -1.2182e-09  Tolerance :   1.0000e-08
  Last MAX-Density change    ...    8.8818e-15  Tolerance :   1.0000e-07
  Last RMS-Density change    ...    6.2942e-17  Tolerance :   5.0000e-09
  Last Orbital Gradient      ...    1.1224e-06  Tolerance :   1.0000e-05
  Last Orbital Rotation      ...    4.5725e-06  Tolerance :   1.0000e-05

             **** THE GBW FILE WAS UPDATED (TS_search_opt_without_h.gbw) ****
             **** DENSITY TS_search_opt_without_h.scfp WAS UPDATED ****
             **** ENERGY FILE WAS UPDATED (TS_search_opt_without_h.en.tmp) ****
             **** THE GBW FILE WAS UPDATED (TS_search_opt_without_h.gbw) ****
             **** DENSITY TS_search_opt_without_h.scfp WAS UPDATED ****
----------------
ORBITAL ENERGIES
----------------

  NO   OCC          E(Eh)            E(eV) 
   0   2.0000     -88.748028     -2414.9566 
   1   2.0000     -24.747995      -673.4272 
   2   2.0000     -19.233387      -523.3671 
   3   2.0000     -19.228022      -523.2211 
   4   2.0000     -14.645190      -398.5159 
   5   2.0000     -14.397035      -391.7632 
   6   2.0000     -10.413719      -283.3717 
   7   2.0000     -10.315399      -280.6963 
   8   2.0000     -10.311936      -280.6020 
   9   2.0000     -10.294300      -280.1221 
  10   2.0000     -10.260828      -279.2113 
  11   2.0000     -10.246539      -278.8225 
  12   2.0000      -7.943758      -216.1606 
  13   2.0000      -5.906782      -160.7317 
  14   2.0000      -5.900834      -160.5699 
  15   2.0000      -5.898171      -160.4974 
[...]
      6       0.000902   0.002548  -0.017146  -0.109455  -0.185738   0.058408
      7      -0.000498  -0.000807  -0.008467   0.051733   0.065468  -0.052579
      8      -0.001322  -0.000409  -0.169188   0.193160   0.090586  -0.366512
      9      -0.000626  -0.001885   0.128948   0.085229   0.398062   0.085673
     10       0.000211   0.000700  -0.048645  -0.036732  -0.151203  -0.018800
     11       0.000402   0.002517  -0.008657  -0.073541  -0.012785   0.181955
     12       0.000252  -0.001361   0.010176  -0.009244  -0.247265  -0.175913
     13       0.000082   0.000307   0.014362   0.002792   0.099671   0.039832
     14       0.001312  -0.001935   0.181254  -0.029400  -0.033087  -0.335615
     15       0.000846   0.003274  -0.061844   0.011786   0.178805   0.011635
     16      -0.000553  -0.001594   0.008092   0.010870  -0.114853   0.026436
     17      -0.001563  -0.002408  -0.153998   0.108334  -0.204041   0.268349
     18      -0.002037   0.001293  -0.036325   0.173875   0.032615   0.039154
     19       0.001048  -0.001349  -0.012865  -0.217030   0.025342  -0.030733
     20       0.000048  -0.002783  -0.103719  -0.521770   0.169468  -0.051489
     21       0.000279   0.000247   0.024427   0.021533  -0.011510  -0.009792
     22       0.000136   0.000350   0.018578   0.066052  -0.021046   0.004230
     23       0.000800   0.001416   0.102752   0.265644  -0.097664   0.001237
     24       0.001023  -0.001795   0.012090  -0.162947  -0.017523  -0.022403
     25      -0.000690   0.001044  -0.005362   0.111498   0.004968   0.016342
     26      -0.000729   0.001203  -0.000601   0.148639  -0.010426   0.025364
     27       0.000234   0.000161  -0.011177   0.013010   0.011402  -0.003824
     28       0.000042  -0.000325   0.004739  -0.006457  -0.000343  -0.004605
     29       0.000075  -0.001164   0.000279   0.015375  -0.018518  -0.003652
     30      -0.002501  -0.003074  -0.271425   0.187593  -0.068676  -0.251740
     31       0.001403   0.002204   0.108233  -0.094875   0.007940   0.098583
     32       0.007367   0.014554   0.432670  -0.574176  -0.279594   0.428354
     33      -0.001354   0.006756  -0.584129   0.008507  -0.474033  -0.023188
     34       0.000583  -0.002227   0.227186  -0.015152   0.180671   0.025066
     35       0.000561   0.002167   0.060879  -0.082551   0.077009   0.236421
     36      -0.000816   0.006426  -0.298070  -0.004822  -0.093585   0.260131
     37      -0.000025  -0.001671   0.093739   0.000674   0.072840  -0.073946
     38       0.000079   0.010623  -0.280704  -0.049963   0.290537   0.364480
     39      -0.059659   0.019975   0.001002  -0.001430  -0.000601  -0.001509
     40       0.019944   0.058708   0.000170   0.000850   0.000492  -0.002832
     41      -0.001265  -0.014133  -0.000422   0.000206  -0.000024   0.002380
     42       0.267013  -0.534531  -0.007987   0.012001  -0.000285   0.010271
     43       0.380951  -0.233141  -0.005383   0.014955   0.000492  -0.001325
     44       0.218737   0.256898   0.001681   0.006847   0.000991  -0.009751
     45       0.654960   0.122556  -0.009122   0.012702   0.004927   0.005057
     46      -0.306251   0.073162   0.003745  -0.008561  -0.001190   0.002952
     47       0.059678  -0.311623   0.002103   0.016872  -0.003310  -0.028827
     48      -0.123675   0.143430   0.002996  -0.002690   0.000170  -0.008100
     49      -0.345291  -0.628282   0.003187   0.000141  -0.007327   0.004477
     50      -0.266157   0.237733   0.006625  -0.005036   0.001499  -0.010991
     51      -0.002678   0.001048  -0.000871   0.001986   0.001557  -0.001938
     52       0.000980   0.002848   0.000850  -0.002424   0.000314  -0.004386
     53       0.000049  -0.000572   0.000060   0.001029  -0.000224  -0.000442
                 48         49         50         51         52         53    
      0       0.000366  -0.000230  -0.000137   0.000725  -0.000198  -0.000077
      1       0.000690  -0.000389  -0.000178   0.000287   0.000280   0.000051
      2      -0.000063   0.000234   0.000129   0.001424  -0.000048   0.000443
      3      -0.000193   0.000138   0.000054   0.000475  -0.000229   0.000033
      4      -0.000093   0.000063  -0.000002  -0.000105   0.000022   0.000051
      5      -0.000194   0.000166   0.000035   0.000898  -0.000453   0.000335
      6      -0.000096   0.000069  -0.000014  -0.077129   0.012953  -0.010339
      7       0.000005   0.000004   0.000008   0.019148  -0.003499   0.002893
      8       0.000171  -0.000164  -0.000063  -0.033407   0.003112  -0.001486
      9       0.000064  -0.000087  -0.000062   0.004586   0.004042  -0.009696
     10      -0.000009   0.000008   0.000026  -0.000425   0.004085  -0.001848
     11      -0.000046   0.000013  -0.000016   0.013336   0.061284  -0.062100
     12      -0.000015   0.000051   0.000053   0.001544   0.044273   0.050914
     13      -0.000010  -0.000010  -0.000014  -0.000774  -0.021890  -0.024463
     14       0.000021   0.000032   0.000025  -0.001084  -0.034158  -0.031963
     15       0.000127  -0.000149  -0.000099   0.000192   0.000040   0.000188
     16      -0.000213   0.000174   0.000094  -0.000191   0.000199   0.000195
     17       0.000041  -0.000083  -0.000070  -0.000372   0.002183   0.003140
     18      -0.000273   0.000234   0.000185   0.000157   0.000603   0.000652
     19       0.000082  -0.000056  -0.000059  -0.000028  -0.000348  -0.000383
     20      -0.000098   0.000116   0.000058   0.000044  -0.000632  -0.000588
     21       0.000013  -0.000021   0.000036  -0.000043  -0.000118  -0.000173
     22      -0.000002  -0.000016  -0.000029  -0.000002   0.000034   0.000060
     23       0.000099  -0.000090  -0.000102  -0.000063  -0.000025  -0.000055
     24       0.000128  -0.000099  -0.000088  -0.000080   0.000063   0.000014
     25      -0.000039   0.000041   0.000015   0.000038   0.000045   0.000062
     26      -0.000060   0.000053   0.000036   0.000050   0.000613   0.000554
     27      -0.000013   0.000016  -0.000006  -0.000038  -0.000004   0.000006
     28      -0.000027   0.000020  -0.000001  -0.000010  -0.000035   0.000004
     29       0.000196  -0.000198  -0.000120  -0.000193   0.000018  -0.000046
     30       0.000640  -0.000147   0.000436   0.873541  -0.126584   0.091654
     31      -0.000176   0.000044  -0.000136  -0.213868   0.031221  -0.022552
     32       0.000317  -0.000052   0.000211   0.390255  -0.053075   0.037035
     33       0.000007   0.000012   0.000021  -0.023485  -0.076393   0.078863
     34       0.000037  -0.000030  -0.000002  -0.007304  -0.036321   0.034201
     35      -0.000048   0.000243   0.000260  -0.173095  -0.695184   0.680790
     36       0.000066  -0.000090  -0.000290  -0.019989  -0.529040  -0.546875
     37      -0.000019   0.000085   0.000116   0.009725   0.258294   0.266790
     38      -0.000056   0.000082   0.000187   0.013716   0.368182   0.374580
     39       0.000608  -0.067286   0.066091  -0.000068  -0.000009  -0.000022
     40      -0.007431  -0.064732  -0.066867  -0.000007  -0.000011   0.000046
     41      -0.045844   0.008229   0.007941   0.000033  -0.000013  -0.000008
     42       0.314569  -0.083799  -0.453589   0.000008   0.000074   0.000235
     43      -0.405094   0.075020   0.588419   0.000043  -0.000080  -0.000309
     44       0.221676  -0.048920  -0.340760  -0.000066  -0.000004   0.000182
     45       0.229245   0.286647   0.126985  -0.000100   0.000047  -0.000098
     46       0.522113   0.674971   0.246227  -0.000377   0.000113  -0.000297
     47       0.126985   0.178787   0.068035  -0.000353  -0.000045  -0.000118
     48      -0.551065   0.595062  -0.456117   0.000669  -0.000100   0.000085
     49      -0.030219   0.019126  -0.040066   0.000054   0.000015   0.000007
     50       0.199447  -0.228010   0.178802  -0.000307   0.000012  -0.000000
     51      -0.000048   0.000145  -0.000135  -0.000027  -0.000010   0.000001
     52      -0.000073   0.000119   0.000127  -0.000056  -0.000032   0.000010
     53      -0.000119  -0.000005   0.000020  -0.000007  -0.000002  -0.000002


-----------
IR SPECTRUM
-----------

 Mode   freq       eps      Int      T**2         TX        TY        TZ
       cm**-1   L/(mol*cm) km/mol    a.u.
----------------------------------------------------------------------------
  9:     59.94   0.001192    6.03  0.006208  (-0.074493 -0.025136 -0.005187)
 10:     79.19   0.002879   14.55  0.011344  (-0.025319 -0.100102 -0.026124)
 11:    117.03   0.000355    1.79  0.000947  (-0.007040  0.028975  0.007583)
 12:    122.15   0.000827    4.18  0.002114  (-0.019879 -0.039839  0.011460)
 13:    185.68   0.001431    7.23  0.002405  (-0.013489 -0.047118  0.001833)
 14:    249.79   0.000964    4.87  0.001205  ( 0.014507 -0.029544  0.011014)
 15:    288.23   0.003165   15.99  0.003427  (-0.002562 -0.054521 -0.021154)
 16:    390.37   0.000085    0.43  0.000068  ( 0.000545  0.005308  0.006303)
 17:    403.08   0.031792  160.66  0.024613  (-0.017339  0.152492  0.032533)
 18:    444.21   0.039000  197.09  0.027398  ( 0.016892  0.157790  0.047064)
 19:    464.88   0.004920   24.86  0.003303  ( 0.030457 -0.043495 -0.021980)
 20:    568.29   0.002987   15.09  0.001640  ( 0.001244 -0.019232  0.035619)
 21:    585.55   0.006208   31.37  0.003309  (-0.035949 -0.036521 -0.026127)
 22:    672.60   0.096797  489.17  0.044911  ( 0.032099  0.202579  0.053312)
 23:    685.24   0.037134  187.66  0.016911  (-0.004958 -0.128553  0.018986)
 24:    746.41   0.000668    3.38  0.000279  (-0.000161  0.001045 -0.016679)
 25:    757.21   0.027131  137.11  0.011181  ( 0.031271  0.100797 -0.006582)
 26:    815.03   0.003008   15.20  0.001152  (-0.007335 -0.026299  0.020152)
 27:    832.11   0.008338   42.13  0.003127  ( 0.024198  0.050194 -0.004677)
 28:    901.84   0.019522   98.66  0.006755  (-0.060615  0.027581 -0.048171)
 29:    951.88   0.005718   28.90  0.001875  (-0.009690  0.041673 -0.006641)
 30:    968.28   0.004243   21.44  0.001367  (-0.031988  0.018501 -0.001381)
 31:   1004.57   0.000386    1.95  0.000120  (-0.010637 -0.001403 -0.002184)
 32:   1013.44   0.001774    8.97  0.000546  (-0.018509 -0.012303 -0.007236)
 33:   1068.19   0.118902  600.88  0.034736  ( 0.136255 -0.127049 -0.005442)
 34:   1104.36   0.043524  219.95  0.012299  (-0.068057  0.074462 -0.046070)
 35:   1181.43   0.055338  279.66  0.014617  ( 0.110773 -0.037840 -0.030240)
 36:   1187.67   0.209166  1057.04  0.054959  (-0.178885  0.143210  0.049497)
 37:   1271.83   0.041861  211.55  0.010271  ( 0.066376 -0.074567  0.017469)
 38:   1294.17   0.189105  955.66  0.045599  ( 0.170243 -0.116334  0.055521)
 39:   1348.10   0.008153   41.20  0.001887  ( 0.017582 -0.002600  0.039640)
 40:   1397.19   0.146681  741.27  0.032762  (-0.141702  0.083635 -0.075414)
 41:   1432.84   0.041757  211.02  0.009094  ( 0.053341  0.022970  0.075640)
 42:   1456.01   0.001688    8.53  0.000362  ( 0.017977 -0.004756  0.003988)
 43:   1461.81   0.002122   10.72  0.000453  (-0.005446 -0.020110 -0.004346)
 44:   1489.26   0.016576   83.77  0.003473  ( 0.026676 -0.022361 -0.047559)
 45:   1543.11   0.165947  838.63  0.033560  (-0.002761 -0.047928 -0.176791)
 46:   1626.75   0.086877  439.04  0.016666  (-0.100153  0.057889  0.057306)
 47:   1660.65   0.113662  574.40  0.021359  (-0.038799 -0.045719 -0.133279)
 48:   3049.67   0.023345  117.98  0.002389  ( 0.000962 -0.009406 -0.047953)
 49:   3129.24   0.005080   25.67  0.000507  (-0.018170 -0.011933  0.005836)
 50:   3134.22   0.005384   27.21  0.000536  ( 0.017347 -0.014790  0.004049)
 51:   3208.23   0.003990   20.16  0.000388  (-0.015184  0.001382 -0.012475)
 52:   3245.22   0.000334    1.69  0.000032  (-0.004336  0.000152  0.003651)
 53:   3257.14   0.000751    3.80  0.000072  (-0.007155  0.004512 -0.000633)

* The epsilon (eps) is given for a Dirac delta lineshape.
** The dipole moment derivative (T) already includes vibrational overlap.

The first frequency considered to be a vibration is 9
The total number of vibrations considered is 45


--------------------------
THERMOCHEMISTRY AT 298.15K
--------------------------

Temperature         ... 298.15 K
Pressure            ... 1.00 atm
Total Mass          ... 189.18 AMU

Throughout the following assumptions are being made:
  (1) The electronic state is orbitally nondegenerate
  (2) There are no thermally accessible electronically excited states
  (3) Hindered rotations indicated by low frequency modes are not
      treated as such but are treated as vibrations and this may
      cause some error
  (4) All equations used are the standard statistical mechanics
      equations for an ideal gas
  (5) All vibrations are strictly harmonic

freq.      59.94  E(vib)   ...       0.51 
freq.      79.19  E(vib)   ...       0.49 
freq.     117.03  E(vib)   ...       0.44 
freq.     122.15  E(vib)   ...       0.43 
freq.     185.68  E(vib)   ...       0.37 
freq.     249.79  E(vib)   ...       0.31 
freq.     288.23  E(vib)   ...       0.27 
freq.     390.37  E(vib)   ...       0.20 
freq.     403.08  E(vib)   ...       0.19 
freq.     444.21  E(vib)   ...       0.17 
freq.     464.88  E(vib)   ...       0.16 
freq.     568.29  E(vib)   ...       0.11 
freq.     585.55  E(vib)   ...       0.11 
freq.     672.60  E(vib)   ...       0.08 
freq.     685.24  E(vib)   ...       0.07 
freq.     746.41  E(vib)   ...       0.06 
freq.     757.21  E(vib)   ...       0.06 
freq.     815.03  E(vib)   ...       0.05 
freq.     832.11  E(vib)   ...       0.04 
freq.     901.84  E(vib)   ...       0.03 
freq.     951.88  E(vib)   ...       0.03 
freq.     968.28  E(vib)   ...       0.03 
freq.    1004.57  E(vib)   ...       0.02 
freq.    1013.44  E(vib)   ...       0.02 
freq.    1068.19  E(vib)   ...       0.02 
freq.    1104.36  E(vib)   ...       0.02 
freq.    1181.43  E(vib)   ...       0.01 
freq.    1187.67  E(vib)   ...       0.01 
freq.    1271.83  E(vib)   ...       0.01 
freq.    1294.17  E(vib)   ...       0.01 
freq.    1348.10  E(vib)   ...       0.01 
freq.    1397.19  E(vib)   ...       0.00 
freq.    1432.84  E(vib)   ...       0.00 
freq.    1456.01  E(vib)   ...       0.00 
freq.    1461.81  E(vib)   ...       0.00 
freq.    1489.26  E(vib)   ...       0.00 
freq.    1543.11  E(vib)   ...       0.00 
freq.    1626.75  E(vib)   ...       0.00 
freq.    1660.65  E(vib)   ...       0.00 
freq.    3049.67  E(vib)   ...       0.00 
freq.    3129.24  E(vib)   ...       0.00 
freq.    3134.22  E(vib)   ...       0.00 
freq.    3208.23  E(vib)   ...       0.00 
freq.    3245.22  E(vib)   ...       0.00 
freq.    3257.14  E(vib)   ...       0.00 

------------
INNER ENERGY
------------

The inner energy is: U= E(el) + E(ZPE) + E(vib) + E(rot) + E(trans)
    E(el)   - is the total energy from the electronic structure calculation
              = E(kin-el) + E(nuc-el) + E(el-el) + E(nuc-nuc)
    E(ZPE)  - the the zero temperature vibrational energy from the frequency calculation
    E(vib)  - the the finite temperature correction to E(ZPE) due to population
              of excited vibrational states
    E(rot)  - is the rotational thermal energy
    E(trans)- is the translational thermal energy

Summary of contributions to the inner energy U:
Electronic energy                ...   -990.26647345 Eh
Zero point energy                ...      0.12041036 Eh      75.56 kcal/mol
Thermal vibrational correction   ...      0.00692901 Eh       4.35 kcal/mol
Thermal rotational correction    ...      0.00141627 Eh       0.89 kcal/mol
Thermal translational correction ...      0.00141627 Eh       0.89 kcal/mol
-----------------------------------------------------------------------
Total thermal energy                   -990.13630154 Eh


Summary of corrections to the electronic energy:
(perhaps to be used in another calculation)
Total thermal correction                  0.00976155 Eh       6.13 kcal/mol
Non-thermal (ZPE) correction              0.12041036 Eh      75.56 kcal/mol
-----------------------------------------------------------------------
Total correction                          0.13017191 Eh      81.68 kcal/mol


--------
ENTHALPY
--------

The enthalpy is H = U + kB*T
                kB is Boltzmann's constant
Total free energy                 ...   -990.13630154 Eh 
Thermal Enthalpy correction       ...      0.00094421 Eh       0.59 kcal/mol
-----------------------------------------------------------------------
Total Enthalpy                    ...   -990.13535733 Eh


Note: Only C1 symmetry has been detected, increase convergence thresholds 
      if your molecule has a higher symmetry. Symmetry factor of 1.0 is   
      used for the rotational entropy correction. 
 

Note: Rotational entropy computed according to Herzberg 
Infrared and Raman Spectra, Chapter V,1, Van Nostrand Reinhold, 1945 
Point Group:  C1, Symmetry Number:   1  
Rotational constants in cm-1:     0.032508     0.027743     0.019227 

Vibrational entropy computed according to the QRRHO of S. Grimme
Chem.Eur.J. 2012 18 9955


-------
ENTROPY
-------

The entropy contributions are T*S = T*(S(el)+S(vib)+S(rot)+S(trans))
     S(el)   - electronic entropy
     S(vib)  - vibrational entropy
     S(rot)  - rotational entropy
     S(trans)- translational entropy
The entropies will be listed as multiplied by the temperature to get
units of energy

Electronic entropy                ...      0.00000000 Eh      0.00 kcal/mol
Vibrational entropy               ...      0.01198433 Eh      7.52 kcal/mol
Rotational entropy                ...      0.01468609 Eh      9.22 kcal/mol
Translational entropy             ...      0.01977419 Eh     12.41 kcal/mol
-----------------------------------------------------------------------
Final entropy term                ...      0.04644460 Eh     29.14 kcal/mol

In case the symmetry of your molecule has not been determined correctly
or in case you have a reason to use a different symmetry number we print 
out the resulting rotational entropy values for sn=1,12 :
 --------------------------------------------------------
|  sn= 1 | S(rot)=       0.01468609 Eh      9.22 kcal/mol|
|  sn= 2 | S(rot)=       0.01403163 Eh      8.80 kcal/mol|
|  sn= 3 | S(rot)=       0.01364880 Eh      8.56 kcal/mol|
|  sn= 4 | S(rot)=       0.01337718 Eh      8.39 kcal/mol|
|  sn= 5 | S(rot)=       0.01316649 Eh      8.26 kcal/mol|
|  sn= 6 | S(rot)=       0.01299434 Eh      8.15 kcal/mol|
|  sn= 7 | S(rot)=       0.01284880 Eh      8.06 kcal/mol|
|  sn= 8 | S(rot)=       0.01272272 Eh      7.98 kcal/mol|
|  sn= 9 | S(rot)=       0.01261151 Eh      7.91 kcal/mol|
|  sn=10 | S(rot)=       0.01251203 Eh      7.85 kcal/mol|
|  sn=11 | S(rot)=       0.01242204 Eh      7.79 kcal/mol|
|  sn=12 | S(rot)=       0.01233989 Eh      7.74 kcal/mol|
 --------------------------------------------------------


-------------------
GIBBS FREE ENERGY
-------------------

The Gibbs free energy is G = H - T*S

Total enthalpy                    ...   -990.13535733 Eh 
Total entropy correction          ...     -0.04644460 Eh    -29.14 kcal/mol
-----------------------------------------------------------------------
Final Gibbs free energy         ...   -990.18180194 Eh

For completeness - the Gibbs free energy minus the electronic energy
G-E(el)                           ...      0.08467151 Eh     53.13 kcal/mol



Timings for individual modules:

Sum of individual times         ...    61731.711 sec (=1028.862 min)
GTO integral calculation        ...       67.679 sec (=   1.128 min)   0.1 %
SCF iterations                  ...     1413.942 sec (=  23.566 min)   2.3 %
SCF Gradient evaluation         ...      355.915 sec (=   5.932 min)   0.6 %
Geometry relaxation             ...        2.096 sec (=   0.035 min)   0.0 %
Numerical frequency calculation ...     2392.509 sec (=  39.875 min)   3.9 %
NEB Iterations                  ...    57499.569 sec (= 958.326 min)  93.1 %
                             ****ORCA TERMINATED NORMALLY****
TOTAL RUN TIME: 0 days 17 hours 8 minutes 49 seconds 179 msec
