
                                 *****************
                                 * O   R   C   A *
                                 *****************

                                            #,                                       
                                            ###                                      
                                            ####                                     
                                            #####                                    
                                            ######                                   
                                           ########,                                 
                                     ,,################,,,,,                         
                               ,,#################################,,                 
                          ,,##########################################,,             
                       ,#########################################, ''#####,          
                    ,#############################################,,   '####,        
                  ,##################################################,,,,####,       
                ,###########''''           ''''###############################       
              ,#####''   ,,,,##########,,,,          '''####'''          '####       
            ,##' ,,,,###########################,,,                        '##       
           ' ,,###''''                  '''############,,,                           
         ,,##''                                '''############,,,,        ,,,,,,###''
      ,#''                                            '''#######################'''  
     '                                                          ''''####''''         
             ,#######,   #######,   ,#######,      ##                                
            ,#'     '#,  ##    ##  ,#'     '#,    #''#        ######   ,####,        
            ##       ##  ##   ,#'  ##            #'  '#       #        #'  '#        
            ##       ##  #######   ##           ,######,      #####,   #    #        
            '#,     ,#'  ##    ##  '#,     ,#' ,#      #,         ##   #,  ,#        
             '#######'   ##     ##  '#######'  #'      '#     #####' # '####'        



                  #######################################################
                  #                        -***-                        #
                  #          Department of theory and spectroscopy      #
                  #    Directorship and core code : Frank Neese         #
                  #        Max Planck Institute fuer Kohlenforschung    #
                  #                Kaiser Wilhelm Platz 1               #
                  #                 D-45470 Muelheim/Ruhr               #
                  #                      Germany                        #
                  #                                                     #
                  #                  All rights reserved                #
                  #                        -***-                        #
                  #######################################################


                         Program Version 5.0.4 -  RELEASE  -


 With contributions from (in alphabetic order):
   Daniel Aravena         : Magnetic Suceptibility
   Michael Atanasov       : Ab Initio Ligand Field Theory (pilot matlab implementation)
   Alexander A. Auer      : GIAO ZORA, VPT2 properties, NMR spectrum
   Ute Becker             : Parallelization
   Giovanni Bistoni       : ED, misc. LED, open-shell LED, HFLD
   Martin Brehm           : Molecular dynamics
   Dmytro Bykov           : SCF Hessian
   Vijay G. Chilkuri      : MRCI spin determinant printing, contributions to CSF-ICE
   Dipayan Datta          : RHF DLPNO-CCSD density
   Achintya Kumar Dutta   : EOM-CC, STEOM-CC
   Dmitry Ganyushin       : Spin-Orbit,Spin-Spin,Magnetic field MRCI
   Miquel Garcia          : C-PCM and meta-GGA Hessian, CC/C-PCM, Gaussian charge scheme
   Yang Guo               : DLPNO-NEVPT2, F12-NEVPT2, CIM, IAO-localization
   Andreas Hansen         : Spin unrestricted coupled pair/coupled cluster methods
   Benjamin Helmich-Paris : MC-RPA, TRAH-SCF, COSX integrals
   Lee Huntington         : MR-EOM, pCC
   Robert Izsak           : Overlap fitted RIJCOSX, COSX-SCS-MP3, EOM
   Marcus Kettner         : VPT2
   Christian Kollmar      : KDIIS, OOCD, Brueckner-CCSD(T), CCSD density, CASPT2, CASPT2-K
   Simone Kossmann        : Meta GGA functionals, TD-DFT gradient, OOMP2, MP2 Hessian
   Martin Krupicka        : Initial AUTO-CI
   Lucas Lang             : DCDCAS
   Marvin Lechner         : AUTO-CI (C++ implementation), FIC-MRCC
   Dagmar Lenk            : GEPOL surface, SMD
   Dimitrios Liakos       : Extrapolation schemes; Compound Job, initial MDCI parallelization
   Dimitrios Manganas     : Further ROCIS development; embedding schemes
   Dimitrios Pantazis     : SARC Basis sets
   Anastasios Papadopoulos: AUTO-CI, single reference methods and gradients
   Taras Petrenko         : DFT Hessian,TD-DFT gradient, ASA, ECA, R-Raman, ABS, FL, XAS/XES, NRVS
   Peter Pinski           : DLPNO-MP2, DLPNO-MP2 Gradient
   Christoph Reimann      : Effective Core Potentials
   Marius Retegan         : Local ZFS, SOC
   Christoph Riplinger    : Optimizer, TS searches, QM/MM, DLPNO-CCSD(T), (RO)-DLPNO pert. Triples
   Tobias Risthaus        : Range-separated hybrids, TD-DFT gradient, RPA, STAB
   Michael Roemelt        : Original ROCIS implementation
   Masaaki Saitow         : Open-shell DLPNO-CCSD energy and density
   Barbara Sandhoefer     : DKH picture change effects
   Avijit Sen             : IP-ROCIS
   Kantharuban Sivalingam : CASSCF convergence, NEVPT2, FIC-MRCI
   Bernardo de Souza      : ESD, SOC TD-DFT
   Georgi Stoychev        : AutoAux, RI-MP2 NMR, DLPNO-MP2 response
   Willem Van den Heuvel  : Paramagnetic NMR
   Boris Wezisla          : Elementary symmetry handling
   Frank Wennmohs         : Technical directorship


 We gratefully acknowledge several colleagues who have allowed us to
 interface, adapt or use parts of their codes:
   Stefan Grimme, W. Hujo, H. Kruse, P. Pracht,  : VdW corrections, initial TS optimization,
                  C. Bannwarth, S. Ehlert          DFT functionals, gCP, sTDA/sTD-DF
   Ed Valeev, F. Pavosevic, A. Kumar             : LibInt (2-el integral package), F12 methods
   Garnet Chan, S. Sharma, J. Yang, R. Olivares  : DMRG
   Ulf Ekstrom                                   : XCFun DFT Library
   Mihaly Kallay                                 : mrcc  (arbitrary order and MRCC methods)
   Jiri Pittner, Ondrej Demel                    : Mk-CCSD
   Frank Weinhold                                : gennbo (NPA and NBO analysis)
   Christopher J. Cramer and Donald G. Truhlar   : smd solvation model
   Lars Goerigk                                  : TD-DFT with DH, B97 family of functionals
   V. Asgeirsson, H. Jonsson                     : NEB implementation
   FAccTs GmbH                                   : IRC, NEB, NEB-TS, DLPNO-Multilevel, CI-OPT
                                                   MM, QMMM, 2- and 3-layer-ONIOM, Crystal-QMMM,
                                                   LR-CPCM, SF, NACMEs, symmetry and pop. for TD-DFT,
                                                   nearIR, NL-DFT gradient (VV10), updates on ESD,
                                                   ML-optimized integration grids
   S Lehtola, MJT Oliveira, MAL Marques          : LibXC Library
   Liviu Ungur et al                             : ANISO software


 Your calculation uses the libint2 library for the computation of 2-el integrals
 For citations please refer to: http://libint.valeyev.net

 Your ORCA version has been built with support for libXC version: 5.1.0
 For citations please refer to: https://tddft.org/programs/libxc/

 This ORCA versions uses:
   CBLAS   interface :  Fast vector & matrix operations
   LAPACKE interface :  Fast linear algebra routines
   SCALAPACK package :  Parallel linear algebra routines
   Shared memory     :  Shared parallel matrices
   BLAS/LAPACK       :  OpenBLAS 0.3.15  USE64BITINT DYNAMIC_ARCH NO_AFFINITY SkylakeX SINGLE_THREADED
        Core in use  :  SkylakeX
   Copyright (c) 2011-2014, The OpenBLAS Project




***************************************
The coordinates will be read from file: reactants.xyz
***************************************


Your calculation utilizes the SMD solvation module
Please cite in your paper:
A.V. Marenich, C.J. Cramer, D.G. Truhlar J. Phys. Chem. B, 113, (2009), 6378 

XCFun DFT library Copyright 2009-2010 Ulf Ekstrom and contributors.
See http://admol.org/xcfun for more information.
This is free software; see the source code for copying conditions.
There is ABSOLUTELY NO WARRANTY; not even for MERCHANTABILITY or FITNESS FOR A PARTICULAR PURPOSE.
For details see the documentation.
Scientific users of this library should cite U. Ekstrom, L. Visscher, R. Bast, A. J. Thorvaldsen and K. Ruud;
J.Chem.Theor.Comp. 2010, DOI: 10.1021/ct100117s
XCFun Version 0.99 

================================================================================

----- Orbital basis set information -----
Your calculation utilizes the basis: 6-311++G**
   H, Li - Ne  : R. Krishnan, J. S. Binkley, R. Seeger and J. A. Pople, J. Chem. Phys. 72, 650 (1980).
   Na - Ar     : A. D. McLean and G. S. Chandler J. Chem. Phys. 72, 5639, (1980).
   K  - Ca     : J.-P. Blaudeau, M. P. McGrath, L. A. Curtiss and L. Radom, J. Chem. Phys. 107, 5016 (1997).
   Ga - Kr     : L. A. Curtiss, M. P. McGrath, J.-P. Blandeau, N. E. Davis, R. C. Binning and L. Radom, J. Chem. Phys. 103, 6104 (1995).
   Pol./Diff.
   H, Li - Cl  : T. Clark, J. Chandrasekhar and P. v. R. Schleyer, J. Comp. Chem. 4, 294 (1983).
   H - Ne      : M. J. Frisch, J. A. Pople and J. S. Binkley, J. Chem. Phys. 80, 3265 (1984).

----- AuxJ basis set information -----
Your calculation utilizes the auxiliary basis: def2/J
   F. Weigend, Phys. Chem. Chem. Phys. 8, 1057 (2006).

================================================================================
                                        WARNINGS
                       Please study these warnings very carefully!
================================================================================


WARNING: Geometry Optimization
  ===> : Switching off AutoStart
         For restart on a previous wavefunction, please use MOREAD

INFO   : the flag for use of the SHARK integral package has been found!

================================================================================
                                       INPUT FILE
================================================================================
NAME = structure_opt.inp
|  1> !wb97x 6-311++G** OPT CPCM(WATER)
|  2> %maxcore  3500
|  3> %pal
|  4> nprocs 24
|  5> end
|  6> %cpcm
|  7> smd true
|  8> SMDsolvent "water"
|  9> end
| 10> %geom
| 11> ConstrainFragments {1} end
| 12> ConstrainFragments {4} end
| 13> ConnectFragments
| 14> { 1 2 C 5 7 }
| 15> { 1 2 C 0 9 }
| 16> { 2 3 C 13 5 }
| 17> { 3 4 C 13 17 }
| 18> end
| 19> end
| 20> * XYZfile -1 1 reactants.xyz
| 21> %geom
| 22> Fragments
| 23> 1 {0:5} end
| 24> 2 {6:12} end
| 25> 3 {13:16} end
| 26> 4 {17} end
| 27> end
| 28> end
| 29> 
| 30>                          ****END OF INPUT****
================================================================================

                       *****************************
                       * Geometry Optimization Run *
                       *****************************

Geometry optimization settings:
Update method            Update   .... BFGS
Choice of coordinates    CoordSys .... Z-matrix Internals
Initial Hessian          InHess   .... Almoef's Model

Convergence Tolerances:
Energy Change            TolE     ....  5.0000e-06 Eh
Max. Gradient            TolMAXG  ....  3.0000e-04 Eh/bohr
RMS Gradient             TolRMSG  ....  1.0000e-04 Eh/bohr
Max. Displacement        TolMAXD  ....  4.0000e-03 bohr
RMS Displacement         TolRMSD  ....  2.0000e-03 bohr
Strict Convergence                ....  False
------------------------------------------------------------------------------
                        ORCA OPTIMIZATION COORDINATE SETUP
------------------------------------------------------------------------------

The optimization will be done in new redundant internal coordinates
Making redundant internal coordinates   ...  (new redundants) done
Evaluating the initial hessian          ...  (Almloef) done
Evaluating the coordinates              ...  done
Calculating the B-matrix                .... done
Calculating the G-matrix                .... done
Diagonalizing the G-matrix              .... done
Imposing constraints:
 Iter   0:  RMS(Cart)=    0.0000000000 RMS(Int)=    0.0000000000
CONVERGED
Small eigenvalue found = 1.162e-02
Small eigenvalue found = 2.211e-02
The first mode is                       ....   72
The number of degrees of freedom        ....   48
Storing new coordinates                 .... done

    -----------------------------------------------------------------
                    Redundant Internal Coordinates


    -----------------------------------------------------------------
         Definition                    Initial Value    Approx d2E/dq
    -----------------------------------------------------------------
      1. B(N   1,C   0)                  1.3611         0.622347   
      2. B(C   2,N   1)                  1.3582         0.628875   
      3. B(C   3,C   2)                  1.3949         0.613658   
      4. B(C   4,C   3)                  1.3934         0.616971   
      5. B(C   5,C   0)                  1.4122         0.575774   
      6. B(C   5,C   4)                  1.4061         0.588917   
      7. B(O   7,C   5)                  2.3435         0.016853 C 
      8. B(O   7,N   6)                  1.2480         0.844503   
      9. B(O   8,N   6)                  1.3769         0.525866   
     10. B(F   9,C   0)                  1.3500         0.602260 C 
     11. B(F   9,N   6)                  2.8678         0.002044   
     12. B(F   9,O   7)                  2.5821         0.005837   
     13. B(H  11,H  10)                  2.4818         0.000415   
     14. B(H  12,O   8)                  2.5152         0.001717   
     15. B(H  12,H  11)                  2.4663         0.000439   
     16. B(H  12,N   6)                  2.7029         0.000861   
     17. B(C  13,O   7)                  8.2582         0.000000 C 
     18. B(H  14,C  13)                  1.0944         0.354319   
     19. B(H  15,C  13)                  1.0928         0.356405   
     20. B(H  16,C  13)                  1.0929         0.356220   
     21. B(S  17,C  13)                  1.8031         0.369292 C 
     22. A(N   1,C   0,C   5)          120.1571         0.425830   
     23. A(N   1,C   0,F   9)          118.6704         0.424592 C 
     24. A(C   5,C   0,F   9)          121.1725         0.421471 C 
     25. A(C   0,N   1,C   2)          121.9524         0.429796   
     26. A(N   1,C   2,C   3)          120.0262         0.431531   
     27. A(C   2,C   3,C   4)          119.3498         0.432882   
     28. A(C   3,C   4,C   5)          120.4718         0.429694   
     29. A(C   0,C   5,O   7)           94.5313         0.237820 C 
     30. A(C   0,C   5,C   4)          118.0425         0.424407   
     31. A(C   4,C   5,O   7)          147.4261         0.238582 C 
     32. A(O   7,N   6,F   9)           64.2090         0.186619   
     33. A(O   8,N   6,H  12)           67.2752         0.152046   
     34. A(O   7,N   6,H  12)          174.2234         0.159181   
     35. A(F   9,N   6,H  12)          110.0144         0.106848   
     36. A(O   7,N   6,O   8)          118.5014         0.433822   
     37. A(N   6,O   7,F   9)           89.9947         0.212791   
     38. A(C   5,O   7,C  13)          114.9642         0.089485   
     39. A(C   5,O   7,N   6)           31.7456         0.248611 C 
     40. A(C   5,O   7,F   9)           58.2491         0.140475 C 
     41. A(N   6,O   7,C  13)          114.6761         0.090167 C 
     42. A(F   9,O   7,C  13)           97.2928         0.089376 C 
     43. A(N   6,O   8,H  12)           82.3972         0.162696   
     44. A(N   6,F   9,O   7)           25.7962         0.120482   
     45. A(C   0,F   9,O   7)           86.0471         0.203997 C 
     46. A(C   0,F   9,N   6)           60.2509         0.179684 C 
     47. A(H  10,H  11,H  12)          119.7063         0.095112   
     48. A(N   6,H  12,O   8)           30.3275         0.103999   
     49. A(N   6,H  12,H  11)          126.7169         0.097913   
     50. A(O   8,H  12,H  11)          157.0445         0.099419   
     51. A(H  14,C  13,H  16)          108.9136         0.289609   
     52. A(H  15,C  13,H  16)          109.1001         0.289876   
     53. A(O   7,C  13,S  17)           17.5425         0.090054   
     54. A(H  16,C  13,S  17)          109.8741         0.339567 C 
     55. A(O   7,C  13,H  15)          125.7060         0.089845 C 
     56. A(O   7,C  13,H  16)          107.2258         0.089844 C 
     57. A(H  14,C  13,S  17)          109.9531         0.339264 C 
     58. A(H  15,C  13,S  17)          109.9749         0.339597 C 
     59. A(O   7,C  13,H  14)           95.4409         0.089843 C 
     60. A(H  14,C  13,H  15)          108.9995         0.289633   
     61. D(C   2,N   1,C   0,C   5)     -0.1041         0.028432   
     62. D(C   2,N   1,C   0,F   9)    179.9112         0.028432 C 
     63. D(C   3,C   2,N   1,C   0)      0.1066         0.025783   
     64. D(C   4,C   3,C   2,N   1)     -0.0956         0.020965   
     65. D(C   5,C   4,C   3,C   2)      0.0854         0.021202   
     66. D(O   7,C   5,C   0,N   1)    179.9933         0.022761 C 
     67. D(O   7,C   5,C   4,C   3)   -179.9036         0.021656 C 
     68. D(O   7,C   5,C   0,F   9)     -0.0223         0.022761 C 
     69. D(C   4,C   5,C   0,N   1)      0.0896         0.022761   
     70. D(C   4,C   5,C   0,F   9)   -179.9260         0.022761 C 
     71. D(C   0,C   5,C   4,C   3)     -0.0818         0.021656   
     72. D(F   9,O   7,C   5,C   0)      0.0117         0.001519 C 
     73. D(F   9,O   7,C   5,C   4)    179.8539         0.001519 C 
     74. D(C  13,O   7,N   6,F   9)    -98.0279         0.085936 C 
     75. D(C  13,O   7,C   5,C   0)    -82.8979         0.001519   
     76. D(C  13,O   7,C   5,C   4)     96.9443         0.001519   
     77. D(N   6,O   7,C   5,C   4)     -0.1099         0.001519 C 
     78. D(C  13,O   7,N   6,O   8)     81.9653         0.085936 C 
     79. D(F   9,O   7,N   6,H  12)      0.1568         0.085936   
     80. D(C   5,O   7,N   6,O   8)   -179.9761         0.085936 C 
     81. D(C   5,O   7,N   6,H  12)      0.1876         0.085936 C 
     82. D(F   9,O   7,N   6,O   8)    179.9932         0.085936   
     83. D(C   5,O   7,N   6,F   9)      0.0308         0.085936 C 
     84. D(N   6,O   7,C   5,C   0)   -179.9521         0.001519 C 
     85. D(C  13,O   7,N   6,H  12)    -97.8710         0.085936 C 
     86. D(H  12,O   8,N   6,O   7)   -179.9821         0.025649   
     87. D(O   7,F   9,N   6,H  12)   -179.9832         0.001500   
     88. D(N   6,F   9,C   0,C   5)      0.0236         0.032536 C 
     89. D(O   7,F   9,C   0,N   1)   -179.9952         0.032536 C 
     90. D(N   6,F   9,C   0,N   1)   -179.9918         0.032536 C 
     91. D(O   7,F   9,C   0,C   5)      0.0202         0.032536 C 
     92. D(C   0,F   9,N   6,O   7)   -179.9922         0.001500 C 
     93. D(O   7,F   9,O   8,H  12)   -179.9897         0.001500   
     94. D(N   6,F   9,O   7,C   5)     -0.0190         0.001503 C 
     95. D(N   6,F   9,O   7,C  13)    114.8903         0.001503 C 
     96. D(C   0,F   9,O   7,N   6)      0.0068         0.001503 C 
     97. D(C   0,F   9,O   7,C   5)     -0.0123         0.001503 C 
     98. D(C   0,F   9,N   6,H  12)      0.0246         0.001500 C 
     99. D(C   0,F   9,O   7,C  13)    114.8970         0.001503   
    100. D(C   0,F   9,O   8,H  12)      0.0232         0.001500 C 
    101. D(O   8,H  12,N   6,O   7)    179.8441         0.001501   
    102. D(N   6,H  12,H  11,H  10)      0.0466         0.001502   
    103. D(H  11,H  12,N   6,O   7)     -0.1748         0.001501   
    104. D(H  11,H  12,N   6,O   8)    179.9811         0.001501   
    105. D(H  11,H  12,N   6,F   9)     -0.0245         0.001501   
    106. D(O   8,H  12,N   6,F   9)    179.9943         0.001501   
    107. D(H  11,H  12,O   8,N   6)     -0.0388         0.001502   
    108. D(O   8,H  12,H  11,H  10)      0.0710         0.001502   
    109. D(H  14,C  13,O   7,N   6)   -110.6834         0.001500 C 
    110. D(S  17,C  13,O   7,F   9)      9.2329         0.001500   
    111. D(H  14,C  13,O   7,C   5)   -145.7579         0.001500   
    112. D(H  15,C  13,O   7,N   6)    131.2045         0.001500 C 
    113. D(H  15,C  13,O   7,F   9)     37.8396         0.001500 C 
    114. D(H  15,C  13,O   7,C   5)     96.1300         0.001500   
    115. D(H  16,C  13,O   7,N   6)      1.0588         0.001500 C 
    116. D(H  16,C  13,O   7,F   9)    -92.3061         0.001500 C 
    117. D(H  16,C  13,O   7,C   5)    -34.0157         0.001500   
    118. D(H  14,C  13,O   7,F   9)    155.9517         0.001500 C 
    119. D(S  17,C  13,O   7,N   6)    102.5978         0.001500   
    120. D(S  17,C  13,O   7,C   5)     67.5233         0.001500   
    -----------------------------------------------------------------

Number of atoms                         .... 18
Number of degrees of freedom            .... 120

         *************************************************************
         *                GEOMETRY OPTIMIZATION CYCLE   1            *
         *************************************************************
---------------------------------
CARTESIAN COORDINATES (ANGSTROEM)
---------------------------------
  C      0.000000    0.000000    1.820000
  N      1.178000   -0.196000    2.473000
  C      1.255000   -0.207000    3.829000
  C      0.105000   -0.016000    4.595000
  C     -1.116000    0.187000    3.955000
  C     -1.192000    0.198000    2.551000
  N     -2.456000    0.409000    1.893000
  O     -2.541000    0.423000    0.648000
  O     -3.602000    0.600000    2.632000
  F      0.000000    0.000000    0.470000
  H      2.209000   -0.366000    4.313000
  H      0.163000   -0.026000    5.676000
  H     -2.005000    0.335000    4.557000
  C     -2.587000    7.963000   -2.720000
  H     -3.632000    7.926000   -3.043000
  H     -1.967000    8.291000   -3.558000
  H     -2.494000    8.683000   -1.903000
  S     -2.057000    6.332000   -2.163000

----------------------------
CARTESIAN COORDINATES (A.U.)
----------------------------
  NO LB      ZA    FRAG     MASS         X           Y           Z
   0 C     6.0000    1    12.011    0.000000    0.000000    3.439302
   1 N     7.0000    1    14.007    2.226097   -0.370386    4.673293
   2 C     6.0000    1    12.011    2.371606   -0.391173    7.235761
   3 C     6.0000    1    12.011    0.198421   -0.030236    8.683292
   4 C     6.0000    1    12.011   -2.108934    0.353379    7.473867
   5 C     6.0000    1    12.011   -2.252554    0.374166    4.820691
   6 N     7.0000    2    14.007   -4.641167    0.772898    3.577252
   7 O     8.0000    2    15.999   -4.801794    0.799354    1.224543
   8 O     8.0000    2    15.999   -6.806794    1.133836    4.973759
   9 F     9.0000    2    18.998    0.000000    0.000000    0.888171
  10 H     1.0000    2     1.008    4.174405   -0.691640    8.150389
  11 H     1.0000    2     1.008    0.308025   -0.049133   10.726086
  12 H     1.0000    2     1.008   -3.788901    0.633058    8.611482
  13 C     6.0000    3    12.011   -4.888722   15.047889   -5.140055
  14 H     1.0000    3     1.008   -6.863485   14.977969   -5.750437
  15 H     1.0000    3     1.008   -3.717091   15.667719   -6.723646
  16 H     1.0000    3     1.008   -4.712977   16.408492   -3.596149
  17 S    16.0000    4    32.060   -3.887167   11.965746   -4.087478

----------------------------------------------
CARTESIAN COORDINATES OF FRAGMENTS (ANGSTROEM)
----------------------------------------------

 FRAGMENT 1 
  C     0.000000    0.000000    1.820000
  N     1.178000   -0.196000    2.473000
  C     1.255000   -0.207000    3.829000
  C     0.105000   -0.016000    4.595000
  C    -1.116000    0.187000    3.955000
  C    -1.192000    0.198000    2.551000

 FRAGMENT 2 
  N    -2.456000    0.409000    1.893000
  O    -2.541000    0.423000    0.648000
  O    -3.602000    0.600000    2.632000
  F     0.000000    0.000000    0.470000
  H     2.209000   -0.366000    4.313000
  H     0.163000   -0.026000    5.676000
  H    -2.005000    0.335000    4.557000

 FRAGMENT 3 
  C    -2.587000    7.963000   -2.720000
  H    -3.632000    7.926000   -3.043000
  H    -1.967000    8.291000   -3.558000
  H    -2.494000    8.683000   -1.903000

 FRAGMENT 4 
  S    -2.057000    6.332000   -2.163000

--------------------------------
INTERNAL COORDINATES (ANGSTROEM)
--------------------------------
 C      0   0   0     0.000000000000     0.00000000     0.00000000
 N      1   0   0     1.361069065110     0.00000000     0.00000000
 C      2   1   0     1.358228993948   121.95243626     0.00000000
 C      3   2   1     1.394896770374   120.02620694     0.10655554
 C      4   3   2     1.393431017309   119.34983770   359.90435571
 C      5   4   3     1.406098502951   120.47178172     0.08537773
 N      6   5   4     1.440548853736   120.30882193   180.03842131
 O      7   6   5     1.247976762604   121.13704526   179.93147861
 O      7   6   5     1.376923382037   120.36156660   359.90709941
 F      1   2   3     1.350000000000   118.67037638   179.91115691
 H      3   2   1     1.081504969938   119.86701156   179.98746005
 H      4   3   2     1.082601034546   120.19197482   179.89186186
 H      5   4   3     1.083803026384   118.91636700   180.02085854
 C      8   7   6     8.258155968496   114.67612142   261.94136509
 H     14   8   7     1.094405317970    95.44091311   249.31661319
 H     14   8   7     1.092807393826   125.70604521   131.20449641
 H     14   8   7     1.092949221144   107.22578863     1.05884440
 S     14   8   7     1.803138929756    17.54248372   102.59779958

---------------------------
INTERNAL COORDINATES (A.U.)
---------------------------
 C      0   0   0     0.000000000000     0.00000000     0.00000000
 N      1   0   0     2.572047782411     0.00000000     0.00000000
 C      2   1   0     2.566680825712   121.95243626     0.00000000
 C      3   2   1     2.635972881098   120.02620694     0.10655554
 C      4   3   2     2.633203009226   119.34983770   359.90435571
 C      5   4   3     2.657141087893   120.47178172     0.08537773
 N      6   5   4     2.722242816095   120.30882193   180.03842131
 O      7   6   5     2.358334302820   121.13704526   179.93147861
 O      7   6   5     2.602008099442   120.36156660   359.90709941
 F      1   2   3     2.551130280794   118.67037638   179.91115691
 H      3   2   1     2.043748205657   119.86701156   179.98746005
 H      4   3   2     2.045819467592   120.19197482   179.89186186
 H      5   4   3     2.048090902982   118.91636700   180.02085854
 C      8   7   6    15.605653151664   114.67612142   261.94136509
 H     14   8   7     2.068126330469    95.44091311   249.31661319
 H     14   8   7     2.065106691455   125.70604521   131.20449641
 H     14   8   7     2.065374706245   107.22578863     1.05884440
 S     14   8   7     3.407438758650    17.54248372   102.59779958

---------------------
BASIS SET INFORMATION
---------------------
There are 6 groups of distinct atoms

 Group   1 Type C   : 12s6p1d contracted to 5s4p1d pattern {63111/3111/1}
 Group   2 Type N   : 12s6p1d contracted to 5s4p1d pattern {63111/3111/1}
 Group   3 Type O   : 12s6p1d contracted to 5s4p1d pattern {63111/3111/1}
 Group   4 Type F   : 12s6p1d contracted to 5s4p1d pattern {63111/3111/1}
 Group   5 Type H   : 6s1p contracted to 4s1p pattern {3111/1}
 Group   6 Type S   : 14s10p1d contracted to 7s6p1d pattern {6311111/421111/1}

Atom   0C    basis set group =>   1
Atom   1N    basis set group =>   2
Atom   2C    basis set group =>   1
Atom   3C    basis set group =>   1
Atom   4C    basis set group =>   1
Atom   5C    basis set group =>   1
Atom   6N    basis set group =>   2
Atom   7O    basis set group =>   3
Atom   8O    basis set group =>   3
Atom   9F    basis set group =>   4
Atom  10H    basis set group =>   5
Atom  11H    basis set group =>   5
Atom  12H    basis set group =>   5
Atom  13C    basis set group =>   1
Atom  14H    basis set group =>   5
Atom  15H    basis set group =>   5
Atom  16H    basis set group =>   5
Atom  17S    basis set group =>   6
---------------------------------
AUXILIARY/J BASIS SET INFORMATION
---------------------------------
There are 6 groups of distinct atoms

 Group   1 Type C   : 12s5p4d2f1g contracted to 6s4p3d1f1g pattern {711111/2111/211/2/1}
 Group   2 Type N   : 12s5p4d2f1g contracted to 6s4p3d1f1g pattern {711111/2111/211/2/1}
 Group   3 Type O   : 12s5p4d2f1g contracted to 6s4p3d1f1g pattern {711111/2111/211/2/1}
 Group   4 Type F   : 12s5p4d2f1g contracted to 6s4p3d1f1g pattern {711111/2111/211/2/1}
 Group   5 Type H   : 5s2p1d contracted to 3s1p1d pattern {311/2/1}
 Group   6 Type S   : 14s5p5d2f1g contracted to 8s4p3d1f1g pattern {71111111/2111/311/2/1}

Atom   0C    basis set group =>   1
Atom   1N    basis set group =>   2
Atom   2C    basis set group =>   1
Atom   3C    basis set group =>   1
Atom   4C    basis set group =>   1
Atom   5C    basis set group =>   1
Atom   6N    basis set group =>   2
Atom   7O    basis set group =>   3
Atom   8O    basis set group =>   3
Atom   9F    basis set group =>   4
Atom  10H    basis set group =>   5
Atom  11H    basis set group =>   5
Atom  12H    basis set group =>   5
Atom  13C    basis set group =>   1
Atom  14H    basis set group =>   5
Atom  15H    basis set group =>   5
Atom  16H    basis set group =>   5
Atom  17S    basis set group =>   6


           ************************************************************
           *        Program running with 24 parallel MPI-processes    *
           *              working on a common directory               *
           ************************************************************
------------------------------------------------------------------------------
                           ORCA GTO INTEGRAL CALCULATION
                           -- RI-GTO INTEGRALS CHOSEN --
------------------------------------------------------------------------------
------------------------------------------------------------------------------
                   ___                                                        
                  /   \      - P O W E R E D   B Y -                         
                 /     \                                                     
                 |  |  |   _    _      __       _____    __    __             
                 |  |  |  | |  | |    /  \     |  _  \  |  |  /  |          
                  \  \/   | |  | |   /    \    | | | |  |  | /  /          
                 / \  \   | |__| |  /  /\  \   | |_| |  |  |/  /          
                |  |  |   |  __  | /  /__\  \  |    /   |      \           
                |  |  |   | |  | | |   __   |  |    \   |  |\   \          
                \     /   | |  | | |  |  |  |  | |\  \  |  | \   \       
                 \___/    |_|  |_| |__|  |__|  |_| \__\ |__|  \__/        
                                                                              
                      - O R C A' S   B I G   F R I E N D -                    
                                      &                                       
                       - I N T E G R A L  F E E D E R -                       
                                                                              
 v1 FN, 2020, v2 2021                                                         
------------------------------------------------------------------------------


Reading SHARK input file structure_opt.SHARKINP.tmp ... ok
----------------------
SHARK INTEGRAL PACKAGE
----------------------

Number of atoms                             ...     18
Number of basis functions                   ...    314
Number of shells                            ...    154
Maximum angular momentum                    ...      2
Integral batch strategy                     ... SHARK/LIBINT Hybrid
RI-J (if used) integral strategy            ... SPLIT-RIJ (Revised 2003 algorithm where possible)
Printlevel                                  ...      1
Contraction scheme used                     ... SEGMENTED contraction
Coulomb Range Separation                    ... NOT USED
Exchange Range Separation                   ... Long Range
   Mu parameter                             ...  0.300000
   Scaling (regular/separated)              ...  0.157706  0.842294
Finite Nucleus Model                        ... NOT USED
Auxiliary Coulomb fitting basis             ... AVAILABLE
   # of basis functions in Aux-J            ...    656
   # of shells in Aux-J                     ...    212
   Maximum angular momentum in Aux-J        ...      4
Auxiliary J/K fitting basis                 ... NOT available
Auxiliary Correlation fitting basis         ... NOT available
Auxiliary 'external' fitting basis          ... NOT available
Integral threshold                          ...     2.500000e-11
Primitive cut-off                           ...     2.500000e-12
Primitive pair pre-selection threshold      ...     2.500000e-12

Calculating pre-screening integrals         ... done (  0.0 sec) Dimension = 154
Organizing shell pair data                  ... done (  0.1 sec)
Shell pair information
Total number of shell pairs                 ...     11935
Shell pairs after pre-screening             ...      8607
Total number of primitive shell pairs       ...     38500
Primitive shell pairs kept                  ...     19858
          la=0 lb=0:   2623 shell pairs
          la=1 lb=0:   3543 shell pairs
          la=1 lb=1:   1229 shell pairs
          la=2 lb=0:    685 shell pairs
          la=2 lb=1:    475 shell pairs
          la=2 lb=2:     52 shell pairs

Calculating one electron integrals          ... done (  0.0 sec)
Calculating RI/J V-Matrix + Cholesky decomp.... done (  0.1 sec)
Calculating Nuclear repulsion               ... done (  0.0 sec) ENN=    662.907726319376 Eh

SHARK setup successfully completed in   1.3 seconds

Maximum memory used throughout the entire GTOINT-calculation: 17.4 MB


           ************************************************************
           *        Program running with 24 parallel MPI-processes    *
           *              working on a common directory               *
           ************************************************************
-------------------------------------------------------------------------------
                                 ORCA SCF
-------------------------------------------------------------------------------

------------
SCF SETTINGS
------------
Hamiltonian:
 Density Functional     Method          .... DFT(GTOs)
 Exchange Functional    Exchange        .... WB97X
 Correlation Functional Correlation     .... WB97X
 Gradients option       PostSCFGGA      .... off
 Hybrid DFT is turned on
   Fraction HF Exchange ScalHFX         ....  0.157706
   Scaling of DF-GGA-X  ScalDFX         ....  0.000000
   Scaling of DF-GGA-C  ScalDFC         ....  1.000000
   Scaling of DF-LDA-C  ScalLDAC        ....  1.000000
   Perturbative correction              ....  0.000000
   Density functional embedding theory  .... OFF
 Long-range corrected/Screened/Range-Separated Hybrid DFT is turned on
   Amount of maximum screened exact exchange              ....  0.842294
   Range separation parameter mu (erf(mu*r12)/r12)        ....  0.300000
 RI-approximation to the Coulomb term is turned on
   Number of AuxJ basis functions       .... 656
   RIJ-COSX (HFX calculated with COS-X)).... on


General Settings:
 Integral files         IntName         .... structure_opt
 Hartree-Fock type      HFTyp           .... RHF
 Total Charge           Charge          ....   -1
 Multiplicity           Mult            ....    1
 Number of Electrons    NEL             ....   98
 Basis Dimension        Dim             ....  314
 Nuclear Repulsion      ENuc            ....    662.9077263194 Eh

Convergence Acceleration:
 DIIS                   CNVDIIS         .... on
   Start iteration      DIISMaxIt       ....    12
   Startup error        DIISStart       ....  0.200000
   # of expansion vecs  DIISMaxEq       ....     5
   Bias factor          DIISBfac        ....   1.050
   Max. coefficient     DIISMaxC        ....  10.000
 Trust-Rad. Augm. Hess. CNVTRAH         .... auto
   Auto Start mean grad. ratio tolernc. ....  1.125000
   Auto Start start iteration           ....    20
   Auto Start num. interpolation iter.  ....    10
   Max. Number of Micro iterations      ....    16
   Max. Number of Macro iterations      .... Maxiter - #DIIS iter
   Number of Davidson start vectors     ....     2
   Converg. threshold I  (grad. norm)   ....   1.000e-05
   Converg. threshold II (energy diff.) ....   1.000e-08
   Grad. Scal. Fac. for Micro threshold ....   0.100
   Minimum threshold for Micro iter.    ....   0.010
   NR start threshold (gradient norm)   ....   0.001
   Initial trust radius                 ....   0.400
   Minimum AH scaling param. (alpha)    ....   1.000
   Maximum AH scaling param. (alpha)    .... 1000.000
   Orbital update algorithm             .... Taylor
   White noise on init. David. guess    .... on
   Maximum white noise                  ....   0.010
   Quad. conv. algorithm                .... NR
 SOSCF                  CNVSOSCF        .... on
   Start iteration      SOSCFMaxIt      ....   150
   Startup grad/error   SOSCFStart      ....  0.003300
 Level Shifting         CNVShift        .... on
   Level shift para.    LevelShift      ....    0.2500
   Turn off err/grad.   ShiftErr        ....    0.0010
 Zerner damping         CNVZerner       .... off
 Static damping         CNVDamp         .... on
   Fraction old density DampFac         ....    0.7000
   Max. Damping (<1)    DampMax         ....    0.9800
   Min. Damping (>=0)   DampMin         ....    0.0000
   Turn off err/grad.   DampErr         ....    0.1000
 Fernandez-Rico         CNVRico         .... off

SCF Procedure:
 Maximum # iterations   MaxIter         ....   125
 SCF integral mode      SCFMode         .... Direct
   Integral package                     .... SHARK and LIBINT hybrid scheme
 Reset frequency        DirectResetFreq ....    20
 Integral Threshold     Thresh          ....  2.500e-11 Eh
 Primitive CutOff       TCut            ....  2.500e-12 Eh

Convergence Tolerance:
 Convergence Check Mode ConvCheckMode   .... Total+1el-Energy
 Convergence forced     ConvForced      .... 0
 Energy Change          TolE            ....  1.000e-08 Eh
 1-El. energy change                    ....  1.000e-05 Eh
 Orbital Gradient       TolG            ....  1.000e-05
 Orbital Rotation angle TolX            ....  1.000e-05
 DIIS Error             TolErr          ....  5.000e-07


Diagonalization of the overlap matrix:
Smallest eigenvalue                        ... 4.152e-06
Time for diagonalization                   ...    0.022 sec
Threshold for overlap eigenvalues          ... 1.000e-08
Number of eigenvalues below threshold      ... 0
Time for construction of square roots      ...    0.081 sec
Total time needed                          ...    0.104 sec

Time for model grid setup =    0.724 sec

------------------------------
INITIAL GUESS: MODEL POTENTIAL
------------------------------
Loading Hartree-Fock densities                     ... done
Calculating cut-offs                               ... done
Initializing the effective Hamiltonian             ... done
Setting up the integral package (SHARK)            ... done
Starting the Coulomb interaction                   ... done (   0.2 sec)
Reading the grid                                   ... done
Mapping shells                                     ... done
Starting the XC term evaluation                    ... done (   0.0 sec)
  promolecular density results
     # of electrons  =     96.996275252
     EX              =    -96.552504401
     EC              =     -3.327212527
     EX+EC           =    -99.879716928
Transforming the Hamiltonian                       ... done (   0.0 sec)
Diagonalizing the Hamiltonian                      ... done (   0.0 sec)
Back transforming the eigenvectors                 ... done (   0.0 sec)
Now organizing SCF variables                       ... done
                      ------------------
                      INITIAL GUESS DONE (   1.0 sec)
                      ------------------
-------------------
DFT GRID GENERATION
-------------------

General Integration Accuracy     IntAcc      ... 4.388
Radial Grid Type                 RadialGrid  ... OptM3 with GC (2021)
Angular Grid (max. ang.)         AngularGrid ... 4 (Lebedev-302)
Angular grid pruning method      GridPruning ... 4 (adaptive)
Weight generation scheme         WeightScheme... Becke
Basis function cutoff            BFCut       ... 1.0000e-11
Integration weight cutoff        WCut        ... 1.0000e-14
Angular grids for H and He will be reduced by one unit
Partially contracted basis set               ... off
Rotationally invariant grid construction     ... off

Total number of grid points                  ...    98153
Total number of batches                      ...     1543
Average number of points per batch           ...       63
Average number of grid points per atom       ...     5453
Time for grid setup =    0.669 sec

--------------------
COSX GRID GENERATION
--------------------

GRIDX 1
-------
General Integration Accuracy     IntAcc      ... 3.816
Radial Grid Type                 RadialGrid  ... OptM3 with GC (2021)
Angular Grid (max. ang.)         AngularGrid ... 1 (Lebedev-50)
Angular grid pruning method      GridPruning ... 4 (adaptive)
Weight generation scheme         WeightScheme... Becke
Basis function cutoff            BFCut       ... 1.0000e-11
Integration weight cutoff        WCut        ... 1.0000e-14
Angular grids for H and He will be reduced by one unit
Partially contracted basis set               ... on
Rotationally invariant grid construction     ... off

Total number of grid points                  ...    12260
Total number of batches                      ...      203
Average number of points per batch           ...       60
Average number of grid points per atom       ...      681
UseSFitting                                  ... on

GRIDX 2
-------
General Integration Accuracy     IntAcc      ... 4.020
Radial Grid Type                 RadialGrid  ... OptM3 with GC (2021)
Angular Grid (max. ang.)         AngularGrid ... 2 (Lebedev-110)
Angular grid pruning method      GridPruning ... 4 (adaptive)
Weight generation scheme         WeightScheme... Becke
Basis function cutoff            BFCut       ... 1.0000e-11
Integration weight cutoff        WCut        ... 1.0000e-14
Angular grids for H and He will be reduced by one unit
Partially contracted basis set               ... on
Rotationally invariant grid construction     ... off

Total number of grid points                  ...    31176
Total number of batches                      ...      496
Average number of points per batch           ...       62
Average number of grid points per atom       ...     1732
UseSFitting                                  ... on

GRIDX 3
-------
General Integration Accuracy     IntAcc      ... 4.338
Radial Grid Type                 RadialGrid  ... OptM3 with GC (2021)
Angular Grid (max. ang.)         AngularGrid ... 3 (Lebedev-194)
Angular grid pruning method      GridPruning ... 4 (adaptive)
Weight generation scheme         WeightScheme... Becke
Basis function cutoff            BFCut       ... 1.0000e-11
Integration weight cutoff        WCut        ... 1.0000e-14
Angular grids for H and He will be reduced by one unit
Partially contracted basis set               ... on
Rotationally invariant grid construction     ... off

Total number of grid points                  ...    69345
Total number of batches                      ...     1093
Average number of points per batch           ...       63
Average number of grid points per atom       ...     3852
UseSFitting                                  ... on

Time for X-Grid setup             =    1.010 sec


--------------------
CPCM SOLVATION MODEL
--------------------
CPCM parameters:
  Epsilon                                         ...      78.3550
  Refrac                                          ...       1.3328
  Rsolv                                           ...       1.3000
  Surface type                                    ... GAUSSIAN VDW
  Epsilon function type                           ...         CPCM
Solvent:                                     ... WATER
SMD-CDS solvent descriptors:
  Soln                                       ...    1.3328
  Soln25                                     ...    1.3323
  Sola                                       ...    0.0000
  Solb                                       ...    0.0000
  Solg                                       ...    0.0000
  Solc                                       ...    0.0000
  Solh                                       ...    0.0000
Radii:
 Radius for C  used is    3.4960 Bohr (=   1.8500 Ang.)
 Radius for N  used is    3.5716 Bohr (=   1.8900 Ang.)
 Radius for O  used is    2.8724 Bohr (=   1.5200 Ang.)
 Radius for F  used is    3.2692 Bohr (=   1.7300 Ang.)
 Radius for H  used is    2.2677 Bohr (=   1.2000 Ang.)
 Radius for S  used is    4.7054 Bohr (=   2.4900 Ang.)
Calculating surface                               ...        done! (  0.0s)
GEPOL surface points                              ...         1154
GEPOL Volume                                      ...    1363.3473
GEPOL Surface-area                                ...     848.6587
Calculating surface distance matrix               ...        done! (  0.0s)
Performing Cholesky decomposition & store         ...        done! (  0.1s)
Overall time for CPCM initialization              ...                 0.1s
--------------
SCF ITERATIONS
--------------
ITER       Energy         Delta-E        Max-DP      RMS-DP      [F,P]     Damp
               ***  Starting incremental Fock matrix formation  ***
  0   -989.8659215224   0.000000000000 0.34186773  0.00328730  0.2373494 0.7000
  1   -990.0281403357  -0.162218813273 0.30601371  0.00260692  0.1156683 0.7000
                               ***Turning on DIIS***
  2   -990.1005778581  -0.072437522458 1.79746089  0.00995109  0.0599657 0.0000
  3   -990.2246176126  -0.124039754516 0.80386990  0.00420016  0.0550157 0.0000
  4   -990.2437610445  -0.019143431820 0.26776218  0.00140565  0.0124248 0.0000
  5   -990.2449347584  -0.001173713971 0.13991929  0.00075320  0.0061362 0.0000
                      *** Initiating the SOSCF procedure ***
                           *** Shutting down DIIS ***
                      *** Re-Reading the Fockian *** 
                      *** Removing any level shift *** 
ITER      Energy       Delta-E        Grad      Rot      Max-DP    RMS-DP
  6   -990.24516525  -0.0002304875  0.001494  0.001494  0.037273  0.000232
               *** Restarting incremental Fock matrix formation ***
  7   -990.24524468  -0.0000794369  0.000979  0.002402  0.011324  0.000157
  8   -990.24528452  -0.0000398350  0.000362  0.002685  0.010891  0.000154
  9   -990.24529061  -0.0000060875  0.000689  0.000723  0.008746  0.000074
 10   -990.24529754  -0.0000069330  0.000112  0.000205  0.001925  0.000020
 11   -990.24529760  -0.0000000652  0.000092  0.000126  0.004197  0.000021
 12   -990.24529796  -0.0000003606  0.000014  0.000040  0.003273  0.000022
 13   -990.24529797  -0.0000000052  0.000007  0.000031  0.006629  0.000046
 14   -990.24529797  -0.0000000053  0.000005  0.000013  0.005006  0.000032
                  ***Gradient check signals convergence***
              ***Rediagonalizing the Fockian in SOSCF/NRSCF***

               *****************************************************
               *                     SUCCESS                       *
               *           SCF CONVERGED AFTER  15 CYCLES          *
               *****************************************************

Old exchange energy                            =    -28.432778597 Eh
New exchange energy                            =    -28.432778365 Eh
Exchange energy change after final integration =      0.000000232 Eh
Total energy after final integration           =   -990.245297749 Eh
Final COS-X integration done in                =     3.321 sec

SMD CDS free energy correction energy :                 5.87343     Kcal/mol
Total Energy after SMD CDS correction =              -990.235937839 Eh

----------------
TOTAL SCF ENERGY
----------------

Total Energy       :         -990.23593784 Eh          -26945.68976 eV

Components:
Nuclear Repulsion  :          662.90772632 Eh           18038.63630 eV
Electronic Energy  :        -1653.14366416 Eh          -44984.32606 eV
One Electron Energy:        -2684.69073059 Eh          -73054.14878 eV
Two Electron Energy:         1031.54706643 Eh           28069.82272 eV
Max COSX asymmetry :            0.00000243 Eh               0.00007 eV
CPCM Dielectric    :           -0.13750784 Eh              -3.74178 eV
SMD CDS (Gcds)     :            0.00935991 Eh               0.25470 eV

Virial components:
Potential Energy   :        -1977.46939072 Eh          -53809.67775 eV
Kinetic Energy     :          987.23345288 Eh           26863.98799 eV
Virial Ratio       :            2.00304131


DFT components:
N(Alpha)           :       48.999680275750 electrons
N(Beta)            :       48.999680275750 electrons
N(Total)           :       97.999360551500 electrons
E(XC)              :      -73.338305493765 Eh       
DFET-embed. en.    :        0.000000000000 Eh       
CPCM Solvation Model Properties:
Surface-charge          :            0.94466864
Charge-correction       :           -0.00540946 Eh              -0.14720 eV
Free-energy (cav+disp)  :            0.00935991 Eh               0.25470 eV

---------------
SCF CONVERGENCE
---------------

  Last Energy change         ...   -6.5364e-09  Tolerance :   1.0000e-08
  Last MAX-Density change    ...    2.6645e-15  Tolerance :   1.0000e-07
  Last RMS-Density change    ...    3.8694e-17  Tolerance :   5.0000e-09
  Last Orbital Gradient      ...    1.9189e-06  Tolerance :   1.0000e-05
  Last Orbital Rotation      ...    1.8329e-06  Tolerance :   1.0000e-05

             **** THE GBW FILE WAS UPDATED (structure_opt.gbw) ****
             **** DENSITY structure_opt.scfp WAS UPDATED ****
             **** ENERGY FILE WAS UPDATED (structure_opt.en.tmp) ****
             **** THE GBW FILE WAS UPDATED (structure_opt.gbw) ****
             **** DENSITY structure_opt.scfp WAS UPDATED ****
----------------
ORBITAL ENERGIES
----------------

  NO   OCC          E(Eh)            E(eV) 
   0   2.0000     -88.720067     -2414.1958 
   1   2.0000     -24.793419      -674.6632 
   2   2.0000     -19.275656      -524.5173 
   3   2.0000     -19.243959      -523.6547 
   4   2.0000     -14.669872      -399.1875 
   5   2.0000     -14.435709      -392.8156 
   6   2.0000     -10.437822      -284.0276 
   7   2.0000     -10.364284      -282.0265 
   8   2.0000     -10.338367      -281.3213 
   9   2.0000     -10.321330      -280.8577 
  10   2.0000     -10.290667      -280.0233 
  11   2.0000     -10.235871      -278.5322 
  12   2.0000      -7.915956      -215.4041 
  13   2.0000      -5.879104      -159.9785 
  14   2.0000      -5.871710      -159.7774 
  15   2.0000      -5.871701      -159.7771 
  16   2.0000      -1.396452       -37.9994 
  17   2.0000      -1.348269       -36.6883 
  18   2.0000      -1.151531       -31.3348 
  19   2.0000      -1.109423       -30.1889 
  20   2.0000      -1.008525       -27.4434 
  21   2.0000      -0.943561       -25.6756 
  22   2.0000      -0.874122       -23.7861 
  23   2.0000      -0.836178       -22.7536 
  24   2.0000      -0.796799       -21.6820 
  25   2.0000      -0.769309       -20.9340 
  26   2.0000      -0.706097       -19.2139 
  27   2.0000      -0.686645       -18.6846 
  28   2.0000      -0.669501       -18.2181 
  29   2.0000      -0.665109       -18.0985 
  30   2.0000      -0.661791       -18.0082 
  31   2.0000      -0.633346       -17.2342 
  32   2.0000      -0.620451       -16.8833 
  33   2.0000      -0.615399       -16.7459 
  34   2.0000      -0.563929       -15.3453 
  35   2.0000      -0.537264       -14.6197 
  36   2.0000      -0.528092       -14.3701 
  37   2.0000      -0.528072       -14.3696 
  38   2.0000      -0.494565       -13.4578 
  39   2.0000      -0.494056       -13.4439 
  40   2.0000      -0.456138       -12.4122 
  41   2.0000      -0.432528       -11.7697 
  42   2.0000      -0.421704       -11.4752 
  43   2.0000      -0.416583       -11.3358 
  44   2.0000      -0.408190       -11.1074 
  45   2.0000      -0.390695       -10.6313 
  46   2.0000      -0.385080       -10.4786 
  47   2.0000      -0.258917        -7.0455 
  48   2.0000      -0.258869        -7.0442 
  49   0.0000      -0.064849        -1.7646 
  50   0.0000       0.022535         0.6132 
  51   0.0000       0.054160         1.4738 
  52   0.0000       0.055449         1.5089 
  53   0.0000       0.057543         1.5658 
  54   0.0000       0.067908         1.8479 
  55   0.0000       0.073238         1.9929 
  56   0.0000       0.087276         2.3749 
  57   0.0000       0.090481         2.4621 
  58   0.0000       0.090597         2.4653 
  59   0.0000       0.100521         2.7353 
  60   0.0000       0.112885         3.0717 
  61   0.0000       0.115033         3.1302 
  62   0.0000       0.125516         3.4155 
  63   0.0000       0.129290         3.5182 
  64   0.0000       0.132245         3.5986 
  65   0.0000       0.140753         3.8301 
  66   0.0000       0.144044         3.9196 
  67   0.0000       0.153586         4.1793 
  68   0.0000       0.163061         4.4371 
  69   0.0000       0.164426         4.4743 
  70   0.0000       0.168992         4.5985 
  71   0.0000       0.172073         4.6823 
  72   0.0000       0.174001         4.7348 
  73   0.0000       0.178522         4.8578 
  74   0.0000       0.180882         4.9221 
  75   0.0000       0.181592         4.9414 
  76   0.0000       0.191134         5.2010 
  77   0.0000       0.193509         5.2657 
  78   0.0000       0.197976         5.3872 
  79   0.0000       0.203406         5.5350 
  80   0.0000       0.205660         5.5963 
  81   0.0000       0.211941         5.7672 
  82   0.0000       0.221367         6.0237 
  83   0.0000       0.221992         6.0407 
  84   0.0000       0.233752         6.3607 
  85   0.0000       0.235073         6.3967 
  86   0.0000       0.249793         6.7972 
  87   0.0000       0.253944         6.9102 
  88   0.0000       0.260329         7.0839 
  89   0.0000       0.269385         7.3304 
  90   0.0000       0.271335         7.3834 
  91   0.0000       0.277953         7.5635 
  92   0.0000       0.278196         7.5701 
  93   0.0000       0.280104         7.6220 
  94   0.0000       0.283025         7.7015 
  95   0.0000       0.296361         8.0644 
  96   0.0000       0.305569         8.3150 
  97   0.0000       0.312192         8.4952 
  98   0.0000       0.314864         8.5679 
  99   0.0000       0.324503         8.8302 
 100   0.0000       0.328259         8.9324 
 101   0.0000       0.337731         9.1901 
 102   0.0000       0.348923         9.4947 
 103   0.0000       0.349725         9.5165 
 104   0.0000       0.360857         9.8194 
 105   0.0000       0.365754         9.9527 
 106   0.0000       0.372222        10.1287 
 107   0.0000       0.372816        10.1448 
 108   0.0000       0.396870        10.7994 
 109   0.0000       0.403919        10.9912 
 110   0.0000       0.408283        11.1099 
 111   0.0000       0.413393        11.2490 
 112   0.0000       0.422049        11.4845 
 113   0.0000       0.428153        11.6506 
 114   0.0000       0.439434        11.9576 
 115   0.0000       0.449989        12.2448 
 116   0.0000       0.455676        12.3996 
 117   0.0000       0.460381        12.5276 
 118   0.0000       0.467150        12.7118 
 119   0.0000       0.476423        12.9641 
 120   0.0000       0.491512        13.3747 
 121   0.0000       0.506992        13.7959 
 122   0.0000       0.519210        14.1284 
 123   0.0000       0.527734        14.3604 
 124   0.0000       0.528402        14.3785 
 125   0.0000       0.549484        14.9522 
 126   0.0000       0.582892        15.8613 
 127   0.0000       0.610987        16.6258 
 128   0.0000       0.612889        16.6776 
 129   0.0000       0.618663        16.8347 
 130   0.0000       0.627051        17.0629 
 131   0.0000       0.638273        17.3683 
 132   0.0000       0.655542        17.8382 
 133   0.0000       0.658439        17.9170 
 134   0.0000       0.668771        18.1982 
 135   0.0000       0.700539        19.0626 
 136   0.0000       0.701605        19.0916 
 137   0.0000       0.726486        19.7687 
 138   0.0000       0.745082        20.2747 
 139   0.0000       0.770566        20.9682 
 140   0.0000       0.771028        20.9807 
 141   0.0000       0.780773        21.2459 
 142   0.0000       0.811487        22.0817 
 143   0.0000       0.826608        22.4931 
 144   0.0000       0.836340        22.7580 
 145   0.0000       0.849440        23.1144 
 146   0.0000       0.850665        23.1478 
 147   0.0000       0.870764        23.6947 
 148   0.0000       0.899796        24.4847 
 149   0.0000       0.909450        24.7474 
 150   0.0000       0.919728        25.0271 
 151   0.0000       0.933581        25.4040 
 152   0.0000       0.953590        25.9485 
 153   0.0000       0.954109        25.9626 
 154   0.0000       0.960555        26.1380 
 155   0.0000       0.971897        26.4467 
 156   0.0000       0.976288        26.5661 
 157   0.0000       0.985517        26.8173 
 158   0.0000       1.004276        27.3277 
 159   0.0000       1.004326        27.3291 
 160   0.0000       1.005148        27.3515 
 161   0.0000       1.034296        28.1446 
 162   0.0000       1.043181        28.3864 
 163   0.0000       1.061757        28.8919 
 164   0.0000       1.073992        29.2248 
 165   0.0000       1.080355        29.3979 
 166   0.0000       1.084407        29.5082 
 167   0.0000       1.141708        31.0675 
 168   0.0000       1.149541        31.2806 
 169   0.0000       1.152804        31.3694 
 170   0.0000       1.172548        31.9067 
 171   0.0000       1.189180        32.3592 
 172   0.0000       1.198844        32.6222 
 173   0.0000       1.211432        32.9647 
 174   0.0000       1.250617        34.0310 
 175   0.0000       1.261617        34.3303 
 176   0.0000       1.277323        34.7577 
 177   0.0000       1.279031        34.8042 
 178   0.0000       1.279307        34.8117 
 179   0.0000       1.292935        35.1825 
 180   0.0000       1.298605        35.3368 
 181   0.0000       1.357028        36.9266 
 182   0.0000       1.395132        37.9635 
 183   0.0000       1.405570        38.2475 
 184   0.0000       1.471106        40.0308 
 185   0.0000       1.506847        41.0034 
 186   0.0000       1.548062        42.1249 
 187   0.0000       1.585897        43.1545 
 188   0.0000       1.589614        43.2556 
 189   0.0000       1.589655        43.2567 
 190   0.0000       1.617537        44.0154 
 191   0.0000       1.631616        44.3985 
 192   0.0000       1.655289        45.0427 
 193   0.0000       1.657170        45.0939 
 194   0.0000       1.692354        46.0513 
 195   0.0000       1.693318        46.0775 
 196   0.0000       1.704190        46.3734 
 197   0.0000       1.715265        46.6747 
 198   0.0000       1.748764        47.5863 
 199   0.0000       1.762103        47.9493 
 200   0.0000       1.787295        48.6348 
 201   0.0000       1.809265        49.2326 
 202   0.0000       1.809981        49.2521 
 203   0.0000       1.812609        49.3236 
 204   0.0000       1.843153        50.1547 
 205   0.0000       1.844702        50.1969 
 206   0.0000       1.869034        50.8590 
 207   0.0000       1.910509        51.9876 
 208   0.0000       1.933872        52.6233 
 209   0.0000       1.947261        52.9877 
 210   0.0000       1.969849        53.6023 
 211   0.0000       1.971274        53.6411 
 212   0.0000       1.990664        54.1687 
 213   0.0000       2.010856        54.7182 
 214   0.0000       2.031990        55.2932 
 215   0.0000       2.044861        55.6435 
 216   0.0000       2.051157        55.8148 
 217   0.0000       2.110254        57.4229 
 218   0.0000       2.140702        58.2515 
 219   0.0000       2.147490        58.4362 
 220   0.0000       2.168181        58.9992 
 221   0.0000       2.172247        59.1099 
 222   0.0000       2.176279        59.2196 
 223   0.0000       2.205904        60.0257 
 224   0.0000       2.292634        62.3857 
 225   0.0000       2.323899        63.2365 
 226   0.0000       2.332132        63.4605 
 227   0.0000       2.332554        63.4720 
 228   0.0000       2.399031        65.2809 
 229   0.0000       2.429210        66.1022 
 230   0.0000       2.494051        67.8666 
 231   0.0000       2.563426        69.7544 
 232   0.0000       2.589051        70.4517 
 233   0.0000       2.595667        70.6317 
 234   0.0000       2.604576        70.8741 
 235   0.0000       2.627084        71.4866 
 236   0.0000       2.658662        72.3459 
 237   0.0000       2.659904        72.3797 
 238   0.0000       2.673411        72.7472 
 239   0.0000       2.674522        72.7774 
 240   0.0000       2.692017        73.2535 
 241   0.0000       2.767320        75.3026 
 242   0.0000       2.784852        75.7797 
 243   0.0000       2.828768        76.9747 
 244   0.0000       2.839862        77.2766 
 245   0.0000       2.858116        77.7733 
 246   0.0000       2.867602        78.0314 
 247   0.0000       2.883119        78.4537 
 248   0.0000       2.894673        78.7681 
 249   0.0000       2.901838        78.9630 
 250   0.0000       2.931586        79.7725 
 251   0.0000       2.937276        79.9273 
 252   0.0000       2.960183        80.5507 
 253   0.0000       2.976290        80.9890 
 254   0.0000       2.986560        81.2684 
 255   0.0000       3.001486        81.6746 
 256   0.0000       3.008053        81.8533 
 257   0.0000       3.098067        84.3027 
 258   0.0000       3.153005        85.7976 
 259   0.0000       3.188610        86.7665 
 260   0.0000       3.268558        88.9420 
 261   0.0000       3.307314        89.9966 
 262   0.0000       3.307910        90.0128 
 263   0.0000       3.338360        90.8414 
 264   0.0000       3.368102        91.6507 
 265   0.0000       3.454251        93.9950 
 266   0.0000       3.496919        95.1560 
 267   0.0000       3.558470        96.8309 
 268   0.0000       3.593227        97.7767 
 269   0.0000       3.680900       100.1624 
 270   0.0000       3.703674       100.7821 
 271   0.0000       3.753128       102.1278 
 272   0.0000       3.853335       104.8546 
 273   0.0000       3.885072       105.7182 
 274   0.0000       3.888446       105.8100 
 275   0.0000       3.892030       105.9075 
 276   0.0000       3.903862       106.2295 
 277   0.0000       3.924460       106.7900 
 278   0.0000       4.012928       109.1973 
 279   0.0000       4.059432       110.4628 
 280   0.0000       4.119852       112.1069 
 281   0.0000       4.143596       112.7530 
 282   0.0000       4.169018       113.4447 
 283   0.0000       4.405470       119.8789 
 284   0.0000       4.477693       121.8442 
 285   0.0000       4.503629       122.5500 
 286   0.0000       4.760693       129.5450 
 287   0.0000       4.942955       134.5046 
 288   0.0000       5.076099       138.1277 
 289   0.0000       5.104121       138.8902 
 290   0.0000       5.192890       141.3057 
 291   0.0000       5.219989       142.0431 
 292   0.0000       5.314525       144.6156 
 293   0.0000       5.698834       155.0732 
 294   0.0000       6.130196       166.8111 
 295   0.0000       6.408352       174.3801 
 296   0.0000       6.539062       177.9369 
 297   0.0000       6.842596       186.1965 
 298   0.0000       7.977425       217.0768 
 299   0.0000      17.545399       477.4346 
 300   0.0000      17.546677       477.4694 
 301   0.0000      17.633660       479.8363 
 302   0.0000      23.649193       643.5273 
 303   0.0000      23.890280       650.0876 
 304   0.0000      23.984351       652.6474 
 305   0.0000      24.030063       653.8913 
 306   0.0000      24.070942       655.0036 
 307   0.0000      24.181090       658.0009 
 308   0.0000      35.375071       962.6046 
 309   0.0000      35.656916       970.2740 
 310   0.0000      49.899581      1357.8366 
 311   0.0000      49.963614      1359.5790 
 312   0.0000      66.792527      1817.5171 
 313   0.0000     188.966327      5142.0352 

--------------------
FRAGMENT INFORMATION
--------------------
Fragment  1:    0   1   2   3   4   5 
Fragment  2:    6   7   8   9  10  11  12 
Fragment  3:   13  14  15  16 
Fragment  4:   17 


                    ********************************
                    * MULLIKEN POPULATION ANALYSIS *
                    ********************************

-------------------------
MULLIKEN FRAGMENT CHARGES
-------------------------
 Fragment   0 :  -0.455178
 Fragment   1 :   0.455171
 Fragment   2 :  -0.027698
 Fragment   3 :  -0.972295
Sum of fragment charges:   -1.0000000

---------------------------------
MULLIKEN FRAGMENT OVERLAP CHARGES
---------------------------------
                  0          1          2          3    
      0      19.902512   0.602173  -0.000062  -0.000474
      1       0.602173  34.953075   0.000053   0.000692
      2      -0.000062   0.000053  11.654591  -0.690406
      3      -0.000474   0.000692  -0.690406  17.317389

-----------------------
MULLIKEN ATOMIC CHARGES
-----------------------
   0 C :    0.006691
   1 N :   -0.204982
   2 C :   -0.293932
   3 C :   -0.262854
   4 C :    0.421382
   5 C :   -0.121484
   6 N :   -0.048581
   7 O :   -0.059280
   8 O :   -0.237152
   9 F :   -0.103082
  10 H :    0.296188
  11 H :    0.281026
  12 H :    0.326052
  13 C :   -0.408003
  14 H :    0.126437
  15 H :    0.126559
  16 H :    0.127309
  17 S :   -0.972295
Sum of atomic charges:   -1.0000000

--------------------------------
MULLIKEN REDUCED ORBITAL CHARGES
--------------------------------
  0 C s       :     3.242431  s :     3.242431
      pz      :     0.678755  p :     2.590421
      px      :     0.970109
      py      :     0.941557
      dz2     :     0.052754  d :     0.160457
      dxz     :     0.048844
      dyz     :     0.028446
      dx2y2   :     0.013769
      dxy     :     0.016644
  1 N s       :     3.626284  s :     3.626284
      pz      :     1.142184  p :     3.548171
      px      :     1.241736
      py      :     1.164251
      dz2     :     0.008166  d :     0.030527
      dxz     :     0.007239
      dyz     :     0.004758
      dx2y2   :     0.005505
      dxy     :     0.004859
  2 C s       :     3.376049  s :     3.376049
      pz      :     0.811779  p :     2.833737
      px      :     1.167675
      py      :     0.854283
      dz2     :     0.023580  d :     0.084147
      dxz     :     0.032196
      dyz     :     0.014802
      dx2y2   :     0.007221
      dxy     :     0.006349
  3 C s       :     3.214754  s :     3.214754
      pz      :     1.157138  p :     2.994940
      px      :     0.870534
      py      :     0.967268
      dz2     :     0.015294  d :     0.053161
      dxz     :     0.017412
      dyz     :     0.005092
      dx2y2   :     0.008213
      dxy     :     0.007149
  4 C s       :     2.513774  s :     2.513774
      pz      :     0.914866  p :     3.007753
      px      :     1.245743
      py      :     0.847145
      dz2     :     0.016545  d :     0.057091
      dxz     :     0.015857
      dyz     :     0.010569
      dx2y2   :     0.007215
      dxy     :     0.006905
  5 C s       :     3.297580  s :     3.297580
      pz      :     1.141220  p :     2.750759
      px      :     0.485983
      py      :     1.123556
      dz2     :     0.013630  d :     0.073144
      dxz     :     0.029767
      dyz     :     0.010339
      dx2y2   :     0.011220
      dxy     :     0.008189
  6 N s       :     3.576609  s :     3.576609
      pz      :     1.051069  p :     3.362983
      px      :     1.210398
      py      :     1.101516
      dz2     :     0.027717  d :     0.108990
      dxz     :     0.039366
      dyz     :     0.023076
      dx2y2   :     0.008549
      dxy     :     0.010282
  7 O s       :     3.785010  s :     3.785010
      pz      :     1.027629  p :     4.255569
      px      :     1.828296
      py      :     1.399644
      dz2     :     0.009710  d :     0.018701
      dxz     :     0.003513
      dyz     :     0.005309
      dx2y2   :     0.000102
      dxy     :     0.000067
  8 O s       :     3.823794  s :     3.823794
      pz      :     1.624447  p :     4.401243
      px      :     1.218457
      py      :     1.558340
      dz2     :     0.001058  d :     0.012115
      dxz     :     0.004900
      dyz     :     0.000879
      dx2y2   :     0.003118
      dxy     :     0.002159
  9 F s       :     3.918910  s :     3.918910
      pz      :     1.388985  p :     5.178840
      px      :     1.915739
      py      :     1.874115
      dz2     :     0.003097  d :     0.005333
      dxz     :     0.000998
      dyz     :     0.001201
      dx2y2   :     0.000027
      dxy     :     0.000009
 10 H s       :     0.679913  s :     0.679913
      pz      :     0.005481  p :     0.023899
      px      :     0.014120
      py      :     0.004298
 11 H s       :     0.694011  s :     0.694011
      pz      :     0.016372  p :     0.024962
      px      :     0.003654
      py      :     0.004936
 12 H s       :     0.648427  s :     0.648427
      pz      :     0.007742  p :     0.025521
      px      :     0.013378
      py      :     0.004401
 13 C s       :     3.267717  s :     3.267717
      pz      :     1.051332  p :     3.087678
      px      :     1.052637
      py      :     0.983709
      dz2     :     0.006334  d :     0.052607
      dxz     :     0.008875
      dyz     :     0.015746
      dx2y2   :     0.014464
      dxy     :     0.007188
 14 H s       :     0.850855  s :     0.850855
      pz      :     0.005434  p :     0.022708
      px      :     0.012627
      py      :     0.004646
 15 H s       :     0.850697  s :     0.850697
      pz      :     0.009814  p :     0.022744
      px      :     0.007437
      py      :     0.005493
 16 H s       :     0.849944  s :     0.849944
      pz      :     0.009493  p :     0.022748
      px      :     0.004741
      py      :     0.008514
 17 S s       :     6.023381  s :     6.023381
      pz      :     3.893079  p :    10.917493
      px      :     3.903203
      py      :     3.121210
      dz2     :     0.003905  d :     0.031421
      dxz     :     0.001255
      dyz     :     0.008110
      dx2y2   :     0.010765
      dxy     :     0.007387


                     *******************************
                     * LOEWDIN POPULATION ANALYSIS *
                     *******************************

------------------------
LOEWDIN FRAGMENT CHARGES
------------------------
 Fragment   0 :   0.057486
 Fragment   1 :  -0.057496
 Fragment   2 :  -0.355409
 Fragment   3 :  -0.644580

----------------------------
LOEWDIN FRAGMENT BOND ORDERS
----------------------------
                  0          1          2          3    
      0      56.961436   6.778856   0.000018   0.000094
      1       6.778856  43.787690   0.000017   0.000104
      2       0.000018   0.000017  15.419811   1.742602
      3       0.000094   0.000104   1.742602  16.644580

----------------------
LOEWDIN ATOMIC CHARGES
----------------------
   0 C :    0.111521
   1 N :   -0.111857
   2 C :    0.077300
   3 C :   -0.033827
   4 C :    0.078049
   5 C :   -0.063701
   6 N :    0.241457
   7 O :   -0.153717
   8 O :   -0.338875
   9 F :   -0.078103
  10 H :    0.087012
  11 H :    0.084549
  12 H :    0.100181
  13 C :   -0.358695
  14 H :    0.001296
  15 H :    0.000914
  16 H :    0.001076
  17 S :   -0.644580

-------------------------------
LOEWDIN REDUCED ORBITAL CHARGES
-------------------------------
  0 C s       :     2.743684  s :     2.743684
      pz      :     0.849363  p :     2.815673
      px      :     1.080470
      py      :     0.885840
      dz2     :     0.112514  d :     0.329123
      dxz     :     0.100720
      dyz     :     0.050393
      dx2y2   :     0.033876
      dxy     :     0.031620
  1 N s       :     3.151620  s :     3.151620
      pz      :     1.301216  p :     3.903397
      px      :     1.416887
      py      :     1.185294
      dz2     :     0.017388  d :     0.056839
      dxz     :     0.015718
      dyz     :     0.007791
      dx2y2   :     0.009544
      dxy     :     0.006398
  2 C s       :     2.786883  s :     2.786883
      pz      :     1.032882  p :     2.953972
      px      :     1.096533
      py      :     0.824556
      dz2     :     0.060303  d :     0.181845
      dxz     :     0.069056
      dyz     :     0.027982
      dx2y2   :     0.014014
      dxy     :     0.010489
  3 C s       :     2.781238  s :     2.781238
      pz      :     1.081333  p :     3.128228
      px      :     1.092136
      py      :     0.954759
      dz2     :     0.034119  d :     0.124360
      dxz     :     0.045069
      dyz     :     0.008011
      dx2y2   :     0.022212
      dxy     :     0.014949
  4 C s       :     2.779269  s :     2.779269
      pz      :     1.065839  p :     3.014389
      px      :     1.108248
      py      :     0.840302
      dz2     :     0.040904  d :     0.128294
      dxz     :     0.039165
      dyz     :     0.021252
      dx2y2   :     0.015051
      dxy     :     0.011922
  5 C s       :     2.757961  s :     2.757961
      pz      :     1.088492  p :     3.125416
      px      :     0.957300
      py      :     1.079624
      dz2     :     0.039911  d :     0.180324
      dxz     :     0.071775
      dyz     :     0.019832
      dx2y2   :     0.031418
      dxy     :     0.017388
  6 N s       :     3.051990  s :     3.051990
      pz      :     1.205998  p :     3.500190
      px      :     1.215043
      py      :     1.079149
      dz2     :     0.060434  d :     0.206363
      dxz     :     0.076199
      dyz     :     0.035694
      dx2y2   :     0.017516
      dxy     :     0.016519
  7 O s       :     3.581165  s :     3.581165
      pz      :     1.283657  p :     4.540236
      px      :     1.838810
      py      :     1.417769
      dz2     :     0.020438  d :     0.032317
      dxz     :     0.005158
      dyz     :     0.006531
      dx2y2   :     0.000119
      dxy     :     0.000071
  8 O s       :     3.667383  s :     3.667383
      pz      :     1.709904  p :     4.651009
      px      :     1.369835
      py      :     1.571270
      dz2     :     0.001545  d :     0.020483
      dxz     :     0.009263
      dyz     :     0.001173
      dx2y2   :     0.005712
      dxy     :     0.002790
  9 F s       :     3.714984  s :     3.714984
      pz      :     1.535146  p :     5.355748
      px      :     1.934348
      py      :     1.886254
      dz2     :     0.004767  d :     0.007371
      dxz     :     0.001184
      dyz     :     0.001375
      dx2y2   :     0.000037
      dxy     :     0.000009
 10 H s       :     0.842589  s :     0.842589
      pz      :     0.016677  p :     0.070399
      px      :     0.042295
      py      :     0.011428
 11 H s       :     0.843001  s :     0.843001
      pz      :     0.047833  p :     0.072450
      px      :     0.011210
      py      :     0.013406
 12 H s       :     0.826590  s :     0.826590
      pz      :     0.023098  p :     0.073229
      px      :     0.038714
      py      :     0.011417
 13 C s       :     2.858128  s :     2.858128
      pz      :     1.121881  p :     3.393678
      px      :     1.121415
      py      :     1.150382
      dz2     :     0.012447  d :     0.106890
      dxz     :     0.017104
      dyz     :     0.032268
      dx2y2   :     0.030298
      dxy     :     0.014772
 14 H s       :     0.927095  s :     0.927095
      pz      :     0.016311  p :     0.071608
      px      :     0.040808
      py      :     0.014489
 15 H s       :     0.927190  s :     0.927190
      pz      :     0.031357  p :     0.071896
      px      :     0.022840
      py      :     0.017699
 16 H s       :     0.927038  s :     0.927038
      pz      :     0.029698  p :     0.071886
      px      :     0.013844
      py      :     0.028344
 17 S s       :     5.613946  s :     5.613946
      pz      :     3.858730  p :    10.993506
      px      :     3.866050
      py      :     3.268726
      dz2     :     0.004612  d :     0.037128
      dxz     :     0.001453
      dyz     :     0.009547
      dx2y2   :     0.012844
      dxy     :     0.008672


                      *****************************
                      * MAYER POPULATION ANALYSIS *
                      *****************************

  NA   - Mulliken gross atomic population
  ZA   - Total nuclear charge
  QA   - Mulliken gross atomic charge
  VA   - Mayer's total valence
  BVA  - Mayer's bonded valence
  FA   - Mayer's free valence

  ATOM       NA         ZA         QA         VA         BVA        FA
  0 C      5.9933     6.0000     0.0067     4.3236     4.3236     0.0000
  1 N      7.2050     7.0000    -0.2050     2.7033     2.7033     0.0000
  2 C      6.2939     6.0000    -0.2939     3.9841     3.9841     0.0000
  3 C      6.2629     6.0000    -0.2629     4.3469     4.3469    -0.0000
  4 C      5.5786     6.0000     0.4214     4.1894     4.1894     0.0000
  5 C      6.1215     6.0000    -0.1215     3.4270     3.4270    -0.0000
  6 N      7.0486     7.0000    -0.0486     3.8856     3.8856    -0.0000
  7 O      8.0593     8.0000    -0.0593     2.2120     2.2120    -0.0000
  8 O      8.2372     8.0000    -0.2372     1.9961     1.9961    -0.0000
  9 F      9.1031     9.0000    -0.1031     0.9619     0.9619     0.0000
 10 H      0.7038     1.0000     0.2962     0.8712     0.8712    -0.0000
 11 H      0.7190     1.0000     0.2810     0.9036     0.9036     0.0000
 12 H      0.6739     1.0000     0.3261     0.8340     0.8340    -0.0000
 13 C      6.4080     6.0000    -0.4080     3.5660     3.5660     0.0000
 14 H      0.8736     1.0000     0.1264     0.9424     0.9424     0.0000
 15 H      0.8734     1.0000     0.1266     0.9425     0.9425    -0.0000
 16 H      0.8727     1.0000     0.1273     0.9422     0.9422     0.0000
 17 S     16.9723    16.0000    -0.9723     0.5906     0.5906     0.0000

  Mayer bond orders larger than 0.100000
B(  0-C ,  1-N ) :   1.2953 B(  0-C ,  2-C ) :   0.1953 B(  0-C ,  3-C ) :   0.1489 
B(  0-C ,  4-C ) :   0.3357 B(  0-C ,  5-C ) :   1.1769 B(  0-C ,  6-N ) :  -0.1955 
B(  0-C ,  9-F ) :   1.3866 B(  1-N ,  2-C ) :   1.1820 B(  1-N ,  5-C ) :   0.1828 
B(  2-C ,  3-C ) :   1.5918 B(  2-C , 10-H ) :   0.8826 B(  3-C ,  4-C ) :   1.4753 
B(  3-C ,  8-O ) :   0.1343 B(  3-C , 11-H ) :   0.8439 B(  4-C ,  5-C ) :   1.6247 
[...]
 289   0.0000       5.126921       139.5106 
 290   0.0000       5.208631       141.7341 
 291   0.0000       5.281646       143.7209 
 292   0.0000       5.370278       146.1327 
 293   0.0000       5.849179       159.1643 
 294   0.0000       6.340235       172.5266 
 295   0.0000       6.416984       174.6150 
 296   0.0000       6.549933       178.2327 
 297   0.0000       6.863733       186.7717 
 298   0.0000       7.977440       217.0772 
 299   0.0000      17.545416       477.4350 
 300   0.0000      17.546700       477.4700 
 301   0.0000      17.633718       479.8379 
 302   0.0000      23.700851       644.9329 
 303   0.0000      23.954168       651.8260 
 304   0.0000      24.020358       653.6272 
 305   0.0000      24.029640       653.8798 
 306   0.0000      24.134328       656.7284 
 307   0.0000      24.245464       659.7526 
 308   0.0000      35.451284       964.6785 
 309   0.0000      35.736627       972.4431 
 310   0.0000      49.923338      1358.4831 
 311   0.0000      50.030977      1361.4121 
 312   0.0000      66.806346      1817.8931 
 313   0.0000     188.966342      5142.0356 

--------------------
FRAGMENT INFORMATION
--------------------
Fragment  1:    0   1   2   3   4   5 
Fragment  2:    6   7   8   9  10  11  12 
Fragment  3:   13  14  15  16 
Fragment  4:   17 


                    ********************************
                    * MULLIKEN POPULATION ANALYSIS *
                    ********************************

-------------------------
MULLIKEN FRAGMENT CHARGES
-------------------------
 Fragment   0 :  -0.491429
 Fragment   1 :   0.491418
 Fragment   2 :  -0.027755
 Fragment   3 :  -0.972233
Sum of fragment charges:   -1.0000000

---------------------------------
MULLIKEN FRAGMENT OVERLAP CHARGES
---------------------------------
                  0          1          2          3    
      0      17.186413   0.497810  -0.000057  -0.000468
      1       0.497810  35.027143   0.000048   0.000678
      2      -0.000057   0.000048  11.654512  -0.690301
      3      -0.000468   0.000678  -0.690301  17.317279

-----------------------
MULLIKEN ATOMIC CHARGES
-----------------------
   0 C :    0.040385
   1 N :   -0.196730
   2 C :   -0.278426
   3 C :   -0.336713
   4 C :    0.501109
   5 C :   -0.221055
   6 N :    0.013265
   7 O :   -0.170709
   8 O :   -0.115866
   9 F :   -0.120514
  10 H :    0.284116
  11 H :    0.278367
  12 H :    0.322759
  13 C :   -0.408029
  14 H :    0.126660
  15 H :    0.126430
  16 H :    0.127184
  17 S :   -0.972233
Sum of atomic charges:   -1.0000000

--------------------------------
MULLIKEN REDUCED ORBITAL CHARGES
--------------------------------
  0 C s       :     3.201477  s :     3.201477
      pz      :     0.672307  p :     2.588220
      px      :     0.969923
      py      :     0.945990
      dz2     :     0.057145  d :     0.169918
      dxz     :     0.050429
      dyz     :     0.029374
      dx2y2   :     0.014624
      dxy     :     0.018347
  1 N s       :     3.606298  s :     3.606298
      pz      :     1.150379  p :     3.555930
      px      :     1.251744
      py      :     1.153808
      dz2     :     0.008732  d :     0.034501
      dxz     :     0.008618
      dyz     :     0.005246
      dx2y2   :     0.006083
      dxy     :     0.005823
  2 C s       :     3.314587  s :     3.314587
      pz      :     0.825254  p :     2.874895
      px      :     1.176414
      py      :     0.873227
      dz2     :     0.025127  d :     0.088944
      dxz     :     0.033533
      dyz     :     0.015888
      dx2y2   :     0.007886
      dxy     :     0.006510
  3 C s       :     3.269418  s :     3.269418
      pz      :     1.156968  p :     3.011654
      px      :     0.885103
      py      :     0.969583
      dz2     :     0.015899  d :     0.055642
      dxz     :     0.018401
      dyz     :     0.005647
      dx2y2   :     0.008177
      dxy     :     0.007518
  4 C s       :     2.397491  s :     2.397491
      pz      :     0.944946  p :     3.041732
      px      :     1.246482
      py      :     0.850304
      dz2     :     0.017212  d :     0.059667
      dxz     :     0.016124
      dyz     :     0.011306
      dx2y2   :     0.007808
      dxy     :     0.007218
  5 C s       :     3.349359  s :     3.349359
      pz      :     1.164957  p :     2.798123
      px      :     0.505417
      py      :     1.127749
      dz2     :     0.013162  d :     0.073573
      dxz     :     0.030902
      dyz     :     0.010295
      dx2y2   :     0.011070
      dxy     :     0.008145
  6 N s       :     3.475545  s :     3.475545
      pz      :     1.032788  p :     3.372304
      px      :     1.231202
      py      :     1.108315
      dz2     :     0.038124  d :     0.138886
      dxz     :     0.045091
      dyz     :     0.029075
      dx2y2   :     0.011929
      dxy     :     0.014666
  7 O s       :     3.811253  s :     3.811253
      pz      :     1.024681  p :     4.341285
      px      :     1.840007
      py      :     1.476596
      dz2     :     0.009752  d :     0.018171
      dxz     :     0.003260
      dyz     :     0.005001
      dx2y2   :     0.000096
      dxy     :     0.000062
  8 O s       :     3.783091  s :     3.783091
      pz      :     1.549151  p :     4.312635
      px      :     1.331579
      py      :     1.431904
      dz2     :     0.002427  d :     0.020141
      dxz     :     0.007422
      dyz     :     0.002082
      dx2y2   :     0.004198
      dxy     :     0.004011
  9 F s       :     3.918203  s :     3.918203
      pz      :     1.399369  p :     5.197081
      px      :     1.918473
      py      :     1.879239
      dz2     :     0.003046  d :     0.005230
      dxz     :     0.000973
      dyz     :     0.001171
      dx2y2   :     0.000030
      dxy     :     0.000010
 10 H s       :     0.692595  s :     0.692595
      pz      :     0.004510  p :     0.023289
      px      :     0.014456
      py      :     0.004323
 11 H s       :     0.696445  s :     0.696445
      pz      :     0.016408  p :     0.025189
      px      :     0.003790
      py      :     0.004991
 12 H s       :     0.651394  s :     0.651394
      pz      :     0.007429  p :     0.025847
      px      :     0.013989
      py      :     0.004429
 13 C s       :     3.267846  s :     3.267846
      pz      :     1.051050  p :     3.087577
      px      :     1.052742
      py      :     0.983785
      dz2     :     0.006296  d :     0.052605
      dxz     :     0.008934
      dyz     :     0.015742
      dx2y2   :     0.014458
      dxy     :     0.007175
 14 H s       :     0.850599  s :     0.850599
      pz      :     0.005461  p :     0.022740
      px      :     0.012621
      py      :     0.004659
 15 H s       :     0.850851  s :     0.850851
      pz      :     0.009791  p :     0.022719
      px      :     0.007446
      py      :     0.005482
 16 H s       :     0.850094  s :     0.850094
      pz      :     0.009477  p :     0.022722
      px      :     0.004727
      py      :     0.008519
 17 S s       :     6.023407  s :     6.023407
      pz      :     3.891614  p :    10.917404
      px      :     3.902885
      py      :     3.122906
      dz2     :     0.003886  d :     0.031423
      dxz     :     0.001272
      dyz     :     0.008154
      dx2y2   :     0.010721
      dxy     :     0.007389


                     *******************************
                     * LOEWDIN POPULATION ANALYSIS *
                     *******************************

------------------------
LOEWDIN FRAGMENT CHARGES
------------------------
 Fragment   0 :   0.031379
 Fragment   1 :  -0.031388
 Fragment   2 :  -0.355420
 Fragment   3 :  -0.644572

----------------------------
LOEWDIN FRAGMENT BOND ORDERS
----------------------------
                  0          1          2          3    
      0      57.200133   6.725504   0.000018   0.000092
      1       6.725504  44.209037   0.000017   0.000111
      2       0.000018   0.000017  15.419660   1.742647
      3       0.000092   0.000111   1.742647  16.644572

----------------------
LOEWDIN ATOMIC CHARGES
----------------------
   0 C :    0.082295
   1 N :   -0.081955
   2 C :    0.056386
   3 C :   -0.034094
   4 C :    0.073171
   5 C :   -0.064424
   6 N :    0.202744
   7 O :   -0.219461
   8 O :   -0.194237
   9 F :   -0.088892
  10 H :    0.083372
  11 H :    0.085649
  12 H :    0.099438
  13 C :   -0.358765
  14 H :    0.001061
  15 H :    0.001061
  16 H :    0.001224
  17 S :   -0.644572

-------------------------------
LOEWDIN REDUCED ORBITAL CHARGES
-------------------------------
  0 C s       :     2.731109  s :     2.731109
      pz      :     0.851652  p :     2.835984
      px      :     1.095775
      py      :     0.888556
      dz2     :     0.121776  d :     0.350613
      dxz     :     0.104079
      dyz     :     0.052059
      dx2y2   :     0.037197
      dxy     :     0.035502
  1 N s       :     3.109099  s :     3.109099
      pz      :     1.300204  p :     3.907919
      px      :     1.433948
      py      :     1.173767
      dz2     :     0.018971  d :     0.064938
      dxz     :     0.018380
      dyz     :     0.009093
      dx2y2   :     0.010697
      dxy     :     0.007796
  2 C s       :     2.774369  s :     2.774369
      pz      :     1.042517  p :     2.975563
      px      :     1.092527
      py      :     0.840520
      dz2     :     0.064211  d :     0.193682
      dxz     :     0.072979
      dyz     :     0.030588
      dx2y2   :     0.015183
      dxy     :     0.010721
  3 C s       :     2.772476  s :     2.772476
      pz      :     1.079546  p :     3.132125
      px      :     1.096759
      py      :     0.955820
      dz2     :     0.035218  d :     0.129493
      dxz     :     0.047262
      dyz     :     0.008773
      dx2y2   :     0.022401
      dxy     :     0.015838
  4 C s       :     2.769227  s :     2.769227
      pz      :     1.074744  p :     3.022797
      px      :     1.105170
      py      :     0.842883
      dz2     :     0.042571  d :     0.134805
      dxz     :     0.040567
      dyz     :     0.022856
      dx2y2   :     0.016215
      dxy     :     0.012595
  5 C s       :     2.753219  s :     2.753219
      pz      :     1.090304  p :     3.129200
      px      :     0.958717
      py      :     1.080179
      dz2     :     0.039625  d :     0.182006
      dxz     :     0.074080
      dyz     :     0.020010
      dx2y2   :     0.030941
      dxy     :     0.017350
  6 N s       :     2.997822  s :     2.997822
      pz      :     1.219788  p :     3.530702
      px      :     1.230458
      py      :     1.080456
      dz2     :     0.080732  d :     0.268732
      dxz     :     0.092530
      dyz     :     0.045949
      dx2y2   :     0.025611
      dxy     :     0.023910
  7 O s       :     3.574424  s :     3.574424
      pz      :     1.275206  p :     4.613404
      px      :     1.847707
      py      :     1.490491
      dz2     :     0.020469  d :     0.031634
      dxz     :     0.004824
      dyz     :     0.006159
      dx2y2   :     0.000116
      dxy     :     0.000066
  8 O s       :     3.548722  s :     3.548722
      pz      :     1.673296  p :     4.610242
      px      :     1.487280
      py      :     1.449666
      dz2     :     0.003687  d :     0.035274
      dxz     :     0.015305
      dyz     :     0.002833
      dx2y2   :     0.008190
      dxy     :     0.005259
  9 F s       :     3.713822  s :     3.713822
      pz      :     1.539847  p :     5.367814
      px      :     1.937239
      py      :     1.890728
      dz2     :     0.004689  d :     0.007255
      dxz     :     0.001172
      dyz     :     0.001345
      dx2y2   :     0.000040
      dxy     :     0.000010
 10 H s       :     0.848028  s :     0.848028
      pz      :     0.014114  p :     0.068600
      px      :     0.042812
      py      :     0.011675
 11 H s       :     0.842179  s :     0.842179
      pz      :     0.047389  p :     0.072172
      px      :     0.011375
      py      :     0.013409
 12 H s       :     0.827110  s :     0.827110
      pz      :     0.021822  p :     0.073452
      px      :     0.040184
      py      :     0.011446
 13 C s       :     2.858268  s :     2.858268
      pz      :     1.121755  p :     3.393618
      px      :     1.121611
      py      :     1.150252
      dz2     :     0.012360  d :     0.106879
      dxz     :     0.017232
      dyz     :     0.032268
      dx2y2   :     0.030268
      dxy     :     0.014752
 14 H s       :     0.927171  s :     0.927171
      pz      :     0.016410  p :     0.071768
      px      :     0.040823
      py      :     0.014536
 15 H s       :     0.927161  s :     0.927161
      pz      :     0.031267  p :     0.071778
      px      :     0.022859
      py      :     0.017652
 16 H s       :     0.927007  s :     0.927007
      pz      :     0.029627  p :     0.071769
      px      :     0.013794
      py      :     0.028348
 17 S s       :     5.613959  s :     5.613959
      pz      :     3.857633  p :    10.993482
      px      :     3.865787
      py      :     3.270062
      dz2     :     0.004589  d :     0.037131
      dxz     :     0.001473
      dyz     :     0.009602
      dx2y2   :     0.012792
      dxy     :     0.008675


                      *****************************
                      * MAYER POPULATION ANALYSIS *
                      *****************************

  NA   - Mulliken gross atomic population
  ZA   - Total nuclear charge
  QA   - Mulliken gross atomic charge
  VA   - Mayer's total valence
  BVA  - Mayer's bonded valence
  FA   - Mayer's free valence

  ATOM       NA         ZA         QA         VA         BVA        FA
  0 C      5.9596     6.0000     0.0404     4.2390     4.2390     0.0000
  1 N      7.1967     7.0000    -0.1967     2.7290     2.7290    -0.0000
  2 C      6.2784     6.0000    -0.2784     4.0285     4.0285    -0.0000
  3 C      6.3367     6.0000    -0.3367     4.4971     4.4971     0.0000
  4 C      5.4989     6.0000     0.5011     4.0867     4.0867    -0.0000
  5 C      6.2211     6.0000    -0.2211     3.4569     3.4569     0.0000
  6 N      6.9867     7.0000     0.0133     3.9818     3.9818     0.0000
  7 O      8.1707     8.0000    -0.1707     2.1286     2.1286     0.0000
  8 O      8.1159     8.0000    -0.1159     2.1936     2.1936     0.0000
  9 F      9.1205     9.0000    -0.1205     0.9239     0.9239     0.0000
 10 H      0.7159     1.0000     0.2841     0.8739     0.8739    -0.0000
 11 H      0.7216     1.0000     0.2784     0.9084     0.9084     0.0000
 12 H      0.6772     1.0000     0.3228     0.8355     0.8355    -0.0000
 13 C      6.4080     6.0000    -0.4080     3.5659     3.5659     0.0000
 14 H      0.8733     1.0000     0.1267     0.9422     0.9422    -0.0000
 15 H      0.8736     1.0000     0.1264     0.9426     0.9426     0.0000
 16 H      0.8728     1.0000     0.1272     0.9422     0.9422    -0.0000
 17 S     16.9722    16.0000    -0.9722     0.5905     0.5905    -0.0000

  Mayer bond orders larger than 0.100000
B(  0-C ,  1-N ) :   1.2977 B(  0-C ,  2-C ) :   0.1777 B(  0-C ,  3-C ) :   0.1776 
B(  0-C ,  4-C ) :   0.2896 B(  0-C ,  5-C ) :   1.2028 B(  0-C ,  6-N ) :  -0.1971 
B(  0-C ,  8-O ) :  -0.1116 B(  0-C ,  9-F ) :   1.3345 B(  1-N ,  2-C ) :   1.1699 
B(  1-N ,  5-C ) :   0.2043 B(  2-C ,  3-C ) :   1.6700 B(  2-C ,  5-C ) :   0.1100 
B(  2-C , 10-H ) :   0.8838 B(  3-C ,  4-C ) :   1.3983 B(  3-C ,  5-C ) :   0.1539 
B(  3-C ,  8-O ) :   0.1623 B(  3-C , 11-H ) :   0.8393 B(  4-C ,  5-C ) :   1.5871 
B(  4-C ,  8-O ) :   0.2386 B(  4-C ,  9-F ) :  -0.1233 B(  4-C , 12-H ) :   0.7215 
B(  5-C ,  6-N ) :   0.6537 B(  5-C ,  8-O ) :  -0.1979 B(  5-C ,  9-F ) :  -0.3153 
B(  5-C , 12-H ) :   0.1424 B(  6-N ,  7-O ) :   1.8234 B(  6-N ,  8-O ) :   1.8349 
B(  7-O ,  8-O ) :   0.2528 B( 13-C , 14-H ) :   0.9820 B( 13-C , 15-H ) :   0.9807 
B( 13-C , 16-H ) :   0.9825 B( 13-C , 17-S ) :   0.6208 

-------
TIMINGS
-------

Total SCF time: 0 days 0 hours 0 min 15 sec 

Total time                  ....      15.031 sec
Sum of individual times     ....      14.414 sec  ( 95.9%)

Fock matrix formation       ....      12.064 sec  ( 80.3%)
  Split-RI-J                ....       0.756 sec  (  6.3% of F)
  Chain of spheres X        ....       8.769 sec  ( 72.7% of F)
  XC integration            ....       1.540 sec  ( 12.8% of F)
    Basis function eval.    ....       0.108 sec  (  7.0% of XC)
    Density eval.           ....       0.233 sec  ( 15.1% of XC)
    XC-Functional eval.     ....       0.047 sec  (  3.0% of XC)
    XC-Potential eval.      ....       0.085 sec  (  5.5% of XC)
Diagonalization             ....       0.026 sec  (  0.2%)
Density matrix formation    ....       0.008 sec  (  0.1%)
Population analysis         ....       0.072 sec  (  0.5%)
Initial guess               ....       0.036 sec  (  0.2%)
Orbital Transformation      ....       0.000 sec  (  0.0%)
Orbital Orthonormalization  ....       0.021 sec  (  0.1%)
DIIS solution               ....       0.011 sec  (  0.1%)
SOSCF solution              ....       0.118 sec  (  0.8%)
Grid generation             ....       2.079 sec  ( 13.8%)

Maximum memory used throughout the entire SCF-calculation: 68.0 MB

-------------------------   --------------------
FINAL SINGLE POINT ENERGY      -990.265227309688
-------------------------   --------------------

                                *** OPTIMIZATION RUN DONE ***

                            ***************************************
                            *     ORCA property calculations      *
                            ***************************************

                                    ---------------------
                                    Active property flags
                                    ---------------------
   (+) Dipole Moment


------------------------------------------------------------------------------
                       ORCA ELECTRIC PROPERTIES CALCULATION
------------------------------------------------------------------------------

Dipole Moment Calculation                       ... on
Quadrupole Moment Calculation                   ... off
Polarizability Calculation                      ... off
GBWName                                         ... structure_opt.gbw
Electron density                                ... structure_opt.scfp
The origin for moment calculation is the CENTER OF MASS  = (-2.307616,  3.442870  2.290582)

-------------
DIPOLE MOMENT
-------------
                                X             Y             Z
Electronic contribution:      4.25163     -22.75524       9.54157
Nuclear contribution   :     -1.58764      14.55598      -0.45885
                        -----------------------------------------
Total Dipole Moment    :      2.66399      -8.19926       9.08272
                        -----------------------------------------
Magnitude (a.u.)       :     12.52280
Magnitude (Debye)      :     31.83043



--------------------
Rotational spectrum 
--------------------
 
Rotational constants in cm-1:     0.036493     0.006036     0.005749 
Rotational constants in MHz :  1094.041836   180.954867   172.338721 

 Dipole components along the rotational axes: 
x,y,z [a.u.] :    12.338443     0.053060     2.140231 
x,y,z [Debye]:    31.361829     0.134869     5.440035 

 

Timings for individual modules:

Sum of individual times         ...     1216.491 sec (=  20.275 min)
GTO integral calculation        ...       74.283 sec (=   1.238 min)   6.1 %
SCF iterations                  ...      929.631 sec (=  15.494 min)  76.4 %
SCF Gradient evaluation         ...      210.770 sec (=   3.513 min)  17.3 %
Geometry relaxation             ...        1.808 sec (=   0.030 min)   0.1 %
                             ****ORCA TERMINATED NORMALLY****
TOTAL RUN TIME: 0 days 0 hours 21 minutes 39 seconds 317 msec
