
                                 *****************
                                 * O   R   C   A *
                                 *****************

                                            #,                                       
                                            ###                                      
                                            ####                                     
                                            #####                                    
                                            ######                                   
                                           ########,                                 
                                     ,,################,,,,,                         
                               ,,#################################,,                 
                          ,,##########################################,,             
                       ,#########################################, ''#####,          
                    ,#############################################,,   '####,        
                  ,##################################################,,,,####,       
                ,###########''''           ''''###############################       
              ,#####''   ,,,,##########,,,,          '''####'''          '####       
            ,##' ,,,,###########################,,,                        '##       
           ' ,,###''''                  '''############,,,                           
         ,,##''                                '''############,,,,        ,,,,,,###''
      ,#''                                            '''#######################'''  
     '                                                          ''''####''''         
             ,#######,   #######,   ,#######,      ##                                
            ,#'     '#,  ##    ##  ,#'     '#,    #''#        ######   ,####,        
            ##       ##  ##   ,#'  ##            #'  '#       #        #'  '#        
            ##       ##  #######   ##           ,######,      #####,   #    #        
            '#,     ,#'  ##    ##  '#,     ,#' ,#      #,         ##   #,  ,#        
             '#######'   ##     ##  '#######'  #'      '#     #####' # '####'        



                  #######################################################
                  #                        -***-                        #
                  #          Department of theory and spectroscopy      #
                  #    Directorship and core code : Frank Neese         #
                  #        Max Planck Institute fuer Kohlenforschung    #
                  #                Kaiser Wilhelm Platz 1               #
                  #                 D-45470 Muelheim/Ruhr               #
                  #                      Germany                        #
                  #                                                     #
                  #                  All rights reserved                #
                  #                        -***-                        #
                  #######################################################


                         Program Version 5.0.4 -  RELEASE  -


 With contributions from (in alphabetic order):
   Daniel Aravena         : Magnetic Suceptibility
   Michael Atanasov       : Ab Initio Ligand Field Theory (pilot matlab implementation)
   Alexander A. Auer      : GIAO ZORA, VPT2 properties, NMR spectrum
   Ute Becker             : Parallelization
   Giovanni Bistoni       : ED, misc. LED, open-shell LED, HFLD
   Martin Brehm           : Molecular dynamics
   Dmytro Bykov           : SCF Hessian
   Vijay G. Chilkuri      : MRCI spin determinant printing, contributions to CSF-ICE
   Dipayan Datta          : RHF DLPNO-CCSD density
   Achintya Kumar Dutta   : EOM-CC, STEOM-CC
   Dmitry Ganyushin       : Spin-Orbit,Spin-Spin,Magnetic field MRCI
   Miquel Garcia          : C-PCM and meta-GGA Hessian, CC/C-PCM, Gaussian charge scheme
   Yang Guo               : DLPNO-NEVPT2, F12-NEVPT2, CIM, IAO-localization
   Andreas Hansen         : Spin unrestricted coupled pair/coupled cluster methods
   Benjamin Helmich-Paris : MC-RPA, TRAH-SCF, COSX integrals
   Lee Huntington         : MR-EOM, pCC
   Robert Izsak           : Overlap fitted RIJCOSX, COSX-SCS-MP3, EOM
   Marcus Kettner         : VPT2
   Christian Kollmar      : KDIIS, OOCD, Brueckner-CCSD(T), CCSD density, CASPT2, CASPT2-K
   Simone Kossmann        : Meta GGA functionals, TD-DFT gradient, OOMP2, MP2 Hessian
   Martin Krupicka        : Initial AUTO-CI
   Lucas Lang             : DCDCAS
   Marvin Lechner         : AUTO-CI (C++ implementation), FIC-MRCC
   Dagmar Lenk            : GEPOL surface, SMD
   Dimitrios Liakos       : Extrapolation schemes; Compound Job, initial MDCI parallelization
   Dimitrios Manganas     : Further ROCIS development; embedding schemes
   Dimitrios Pantazis     : SARC Basis sets
   Anastasios Papadopoulos: AUTO-CI, single reference methods and gradients
   Taras Petrenko         : DFT Hessian,TD-DFT gradient, ASA, ECA, R-Raman, ABS, FL, XAS/XES, NRVS
   Peter Pinski           : DLPNO-MP2, DLPNO-MP2 Gradient
   Christoph Reimann      : Effective Core Potentials
   Marius Retegan         : Local ZFS, SOC
   Christoph Riplinger    : Optimizer, TS searches, QM/MM, DLPNO-CCSD(T), (RO)-DLPNO pert. Triples
   Tobias Risthaus        : Range-separated hybrids, TD-DFT gradient, RPA, STAB
   Michael Roemelt        : Original ROCIS implementation
   Masaaki Saitow         : Open-shell DLPNO-CCSD energy and density
   Barbara Sandhoefer     : DKH picture change effects
   Avijit Sen             : IP-ROCIS
   Kantharuban Sivalingam : CASSCF convergence, NEVPT2, FIC-MRCI
   Bernardo de Souza      : ESD, SOC TD-DFT
   Georgi Stoychev        : AutoAux, RI-MP2 NMR, DLPNO-MP2 response
   Willem Van den Heuvel  : Paramagnetic NMR
   Boris Wezisla          : Elementary symmetry handling
   Frank Wennmohs         : Technical directorship


 We gratefully acknowledge several colleagues who have allowed us to
 interface, adapt or use parts of their codes:
   Stefan Grimme, W. Hujo, H. Kruse, P. Pracht,  : VdW corrections, initial TS optimization,
                  C. Bannwarth, S. Ehlert          DFT functionals, gCP, sTDA/sTD-DF
   Ed Valeev, F. Pavosevic, A. Kumar             : LibInt (2-el integral package), F12 methods
   Garnet Chan, S. Sharma, J. Yang, R. Olivares  : DMRG
   Ulf Ekstrom                                   : XCFun DFT Library
   Mihaly Kallay                                 : mrcc  (arbitrary order and MRCC methods)
   Jiri Pittner, Ondrej Demel                    : Mk-CCSD
   Frank Weinhold                                : gennbo (NPA and NBO analysis)
   Christopher J. Cramer and Donald G. Truhlar   : smd solvation model
   Lars Goerigk                                  : TD-DFT with DH, B97 family of functionals
   V. Asgeirsson, H. Jonsson                     : NEB implementation
   FAccTs GmbH                                   : IRC, NEB, NEB-TS, DLPNO-Multilevel, CI-OPT
                                                   MM, QMMM, 2- and 3-layer-ONIOM, Crystal-QMMM,
                                                   LR-CPCM, SF, NACMEs, symmetry and pop. for TD-DFT,
                                                   nearIR, NL-DFT gradient (VV10), updates on ESD,
                                                   ML-optimized integration grids
   S Lehtola, MJT Oliveira, MAL Marques          : LibXC Library
   Liviu Ungur et al                             : ANISO software


 Your calculation uses the libint2 library for the computation of 2-el integrals
 For citations please refer to: http://libint.valeyev.net

 Your ORCA version has been built with support for libXC version: 5.1.0
 For citations please refer to: https://tddft.org/programs/libxc/

 This ORCA versions uses:
   CBLAS   interface :  Fast vector & matrix operations
   LAPACKE interface :  Fast linear algebra routines
   SCALAPACK package :  Parallel linear algebra routines
   Shared memory     :  Shared parallel matrices
   BLAS/LAPACK       :  OpenBLAS 0.3.15  USE64BITINT DYNAMIC_ARCH NO_AFFINITY SkylakeX SINGLE_THREADED
        Core in use  :  SkylakeX
   Copyright (c) 2011-2014, The OpenBLAS Project




***************************************
The coordinates will be read from file: reactants.xyz
***************************************


Your calculation utilizes the SMD solvation module
Please cite in your paper:
A.V. Marenich, C.J. Cramer, D.G. Truhlar J. Phys. Chem. B, 113, (2009), 6378 

XCFun DFT library Copyright 2009-2010 Ulf Ekstrom and contributors.
See http://admol.org/xcfun for more information.
This is free software; see the source code for copying conditions.
There is ABSOLUTELY NO WARRANTY; not even for MERCHANTABILITY or FITNESS FOR A PARTICULAR PURPOSE.
For details see the documentation.
Scientific users of this library should cite U. Ekstrom, L. Visscher, R. Bast, A. J. Thorvaldsen and K. Ruud;
J.Chem.Theor.Comp. 2010, DOI: 10.1021/ct100117s
XCFun Version 0.99 

================================================================================

----- Orbital basis set information -----
Your calculation utilizes the basis: 6-311++G**
   H, Li - Ne  : R. Krishnan, J. S. Binkley, R. Seeger and J. A. Pople, J. Chem. Phys. 72, 650 (1980).
   Na - Ar     : A. D. McLean and G. S. Chandler J. Chem. Phys. 72, 5639, (1980).
   K  - Ca     : J.-P. Blaudeau, M. P. McGrath, L. A. Curtiss and L. Radom, J. Chem. Phys. 107, 5016 (1997).
   Ga - Kr     : L. A. Curtiss, M. P. McGrath, J.-P. Blandeau, N. E. Davis, R. C. Binning and L. Radom, J. Chem. Phys. 103, 6104 (1995).
   Pol./Diff.
   H, Li - Cl  : T. Clark, J. Chandrasekhar and P. v. R. Schleyer, J. Comp. Chem. 4, 294 (1983).
   H - Ne      : M. J. Frisch, J. A. Pople and J. S. Binkley, J. Chem. Phys. 80, 3265 (1984).

----- AuxJ basis set information -----
Your calculation utilizes the auxiliary basis: def2/J
   F. Weigend, Phys. Chem. Chem. Phys. 8, 1057 (2006).

================================================================================
                                        WARNINGS
                       Please study these warnings very carefully!
================================================================================


WARNING: Geometry Optimization
  ===> : Switching off AutoStart
         For restart on a previous wavefunction, please use MOREAD

INFO   : the flag for use of the SHARK integral package has been found!

================================================================================
                                       INPUT FILE
================================================================================
NAME = structure_opt.inp
|  1> !wb97x 6-311++G** OPT CPCM(WATER)
|  2> %maxcore  3500
|  3> %pal
|  4> nprocs 24
|  5> end
|  6> %cpcm
|  7> smd true
|  8> SMDsolvent "water"
|  9> end
| 10> %geom
| 11> ConstrainFragments {1} end
| 12> ConstrainFragments {4} end
| 13> ConnectFragments
| 14> { 1 2 C 5 7 }
| 15> { 1 2 C 0 9 }
| 16> { 2 3 C 13 5 }
| 17> { 3 4 C 13 17 }
| 18> end
| 19> end
| 20> * XYZfile -1 1 reactants.xyz
| 21> %geom
| 22> Fragments
| 23> 1 {0:5} end
| 24> 2 {6:12} end
| 25> 3 {13:16} end
| 26> 4 {17} end
| 27> end
| 28> end
| 29> 
| 30>                          ****END OF INPUT****
================================================================================

                       *****************************
                       * Geometry Optimization Run *
                       *****************************

Geometry optimization settings:
Update method            Update   .... BFGS
Choice of coordinates    CoordSys .... Z-matrix Internals
Initial Hessian          InHess   .... Almoef's Model

Convergence Tolerances:
Energy Change            TolE     ....  5.0000e-06 Eh
Max. Gradient            TolMAXG  ....  3.0000e-04 Eh/bohr
RMS Gradient             TolRMSG  ....  1.0000e-04 Eh/bohr
Max. Displacement        TolMAXD  ....  4.0000e-03 bohr
RMS Displacement         TolRMSD  ....  2.0000e-03 bohr
Strict Convergence                ....  False
------------------------------------------------------------------------------
                        ORCA OPTIMIZATION COORDINATE SETUP
------------------------------------------------------------------------------

The optimization will be done in new redundant internal coordinates
Making redundant internal coordinates   ...  (new redundants) done
Evaluating the initial hessian          ...  (Almloef) done
Evaluating the coordinates              ...  done
Calculating the B-matrix                .... done
Calculating the G-matrix                .... done
Diagonalizing the G-matrix              .... done
Imposing constraints:
 Iter   0:  RMS(Cart)=    0.0000000000 RMS(Int)=    0.0000000000
CONVERGED
Small eigenvalue found = 6.183e-03
Small eigenvalue found = 2.654e-02
The first mode is                       ....   62
The number of degrees of freedom        ....   48
Storing new coordinates                 .... done

    -----------------------------------------------------------------
                    Redundant Internal Coordinates


    -----------------------------------------------------------------
         Definition                    Initial Value    Approx d2E/dq
    -----------------------------------------------------------------
      1. B(N   1,C   0)                  1.3611         0.622347   
      2. B(C   2,N   1)                  1.3582         0.628875   
      3. B(C   3,C   2)                  1.3949         0.613658   
      4. B(C   4,C   3)                  1.3934         0.616971   
      5. B(C   5,C   0)                  1.4122         0.575774   
      6. B(C   5,C   4)                  1.4061         0.588917   
      7. B(O   7,C   5)                  2.3435         0.016853 C 
      8. B(O   7,N   6)                  1.2480         0.844503   
      9. B(O   8,N   6)                  1.3769         0.525866   
     10. B(F   9,C   0)                  1.3500         0.602260 C 
     11. B(F   9,N   6)                  2.8678         0.002044   
     12. B(F   9,O   7)                  2.5821         0.005837   
     13. B(H  11,H  10)                  2.4818         0.000415   
     14. B(H  12,O   8)                  2.5152         0.001717   
     15. B(H  12,H  11)                  2.4663         0.000439   
     16. B(H  12,N   6)                  2.7029         0.000861   
     17. B(C  13,H  11)                  3.7500         0.000021 C 
     18. B(H  14,C  13)                  1.0937         0.355221   
     19. B(H  15,C  13)                  1.0937         0.355244   
     20. B(H  16,C  13)                  1.0928         0.356382   
     21. B(S  17,C  13)                  1.8034         0.368953 C 
     22. A(N   1,C   0,F   9)          118.6704         0.424592 C 
     23. A(C   5,C   0,F   9)          121.1725         0.421471 C 
     24. A(N   1,C   0,C   5)          120.1571         0.425830   
     25. A(C   0,N   1,C   2)          121.9524         0.429796   
     26. A(N   1,C   2,C   3)          120.0262         0.431531   
     27. A(C   2,C   3,C   4)          119.3498         0.432882   
     28. A(C   3,C   4,C   5)          120.4718         0.429694   
     29. A(C   4,C   5,O   7)          147.4261         0.238582 C 
     30. A(C   0,C   5,O   7)           94.5313         0.237820 C 
     31. A(C   0,C   5,C   4)          118.0425         0.424407   
     32. A(O   8,N   6,H  12)           67.2752         0.152046   
     33. A(O   7,N   6,H  12)          174.2234         0.159181   
     34. A(O   7,N   6,F   9)           64.2090         0.186619   
     35. A(F   9,N   6,H  12)          110.0144         0.106848   
     36. A(O   7,N   6,O   8)          118.5014         0.433822   
     37. A(N   6,O   7,F   9)           89.9947         0.212791   
     38. A(C   5,O   7,N   6)           31.7456         0.248611 C 
     39. A(C   5,O   7,F   9)           58.2491         0.140475 C 
     40. A(N   6,O   8,H  12)           82.3972         0.162696   
     41. A(N   6,F   9,O   7)           25.7962         0.120482   
     42. A(C   0,F   9,O   7)           86.0471         0.203997 C 
     43. A(C   0,F   9,N   6)           60.2509         0.179684 C 
     44. A(H  10,H  11,C  13)           90.3534         0.092822 C 
     45. A(H  10,H  11,H  12)          119.7063         0.095112   
     46. A(H  12,H  11,C  13)          137.7735         0.092871 C 
     47. A(N   6,H  12,O   8)           30.3275         0.103999   
     48. A(N   6,H  12,H  11)          126.7169         0.097913   
     49. A(O   8,H  12,H  11)          157.0445         0.099419   
     50. A(H  14,C  13,H  15)          109.0467         0.289600   
     51. A(H  14,C  13,H  16)          108.9370         0.289745   
     52. A(H  15,C  13,H  16)          108.9802         0.289748   
     53. A(H  11,C  13,H  14)          108.5894         0.111035 C 
     54. A(H  11,C  13,S  17)           26.0483         0.116501   
     55. A(H  11,C  13,H  15)           86.7853         0.111036 C 
     56. A(H  11,C  13,H  16)          131.1234         0.111052 C 
     57. A(H  14,C  13,S  17)          109.9433         0.339356 C 
     58. A(H  15,C  13,S  17)          109.9830         0.339360 C 
     59. A(H  16,C  13,S  17)          109.9244         0.339541 C 
     60. D(C   2,N   1,C   0,C   5)     -0.1041         0.028432   
     61. D(C   2,N   1,C   0,F   9)    179.9112         0.028432 C 
     62. D(C   3,C   2,N   1,C   0)      0.1066         0.025783   
     63. D(C   4,C   3,C   2,N   1)     -0.0956         0.020965   
     64. D(C   5,C   4,C   3,C   2)      0.0854         0.021202   
     65. D(C   4,C   5,C   0,N   1)      0.0896         0.022761   
     66. D(C   0,C   5,C   4,C   3)     -0.0818         0.021656   
     67. D(O   7,C   5,C   4,C   3)   -179.9036         0.021656 C 
     68. D(O   7,C   5,C   0,F   9)     -0.0223         0.022761 C 
     69. D(C   4,C   5,C   0,F   9)   -179.9260         0.022761 C 
     70. D(O   7,C   5,C   0,N   1)    179.9933         0.022761 C 
     71. D(F   9,O   7,C   5,C   0)      0.0117         0.001517 C 
     72. D(C   5,O   7,N   6,H  12)      0.1876         0.079747 C 
     73. D(N   6,O   7,C   5,C   0)   -179.9521         0.001517 C 
     74. D(F   9,O   7,C   5,C   4)    179.8539         0.001517 C 
     75. D(F   9,O   7,N   6,O   8)    179.9932         0.079747   
     76. D(F   9,O   7,N   6,H  12)      0.1568         0.079747   
     77. D(C   5,O   7,N   6,O   8)   -179.9761         0.079747 C 
     78. D(N   6,O   7,C   5,C   4)     -0.1099         0.001517 C 
     79. D(C   5,O   7,N   6,F   9)      0.0308         0.079747 C 
     80. D(H  12,O   8,N   6,O   7)   -179.9821         0.025649   
     81. D(C   0,F   9,O   7,C   5)     -0.0123         0.001503 C 
     82. D(N   6,F   9,C   0,N   1)   -179.9918         0.032536 C 
     83. D(N   6,F   9,C   0,C   5)      0.0236         0.032536 C 
     84. D(O   7,F   9,C   0,N   1)   -179.9952         0.032536 C 
     85. D(O   7,F   9,N   6,H  12)   -179.9832         0.001500   
     86. D(C   0,F   9,N   6,H  12)      0.0246         0.001500 C 
     87. D(N   6,F   9,O   7,C   5)     -0.0190         0.001503 C 
     88. D(C   0,F   9,O   7,N   6)      0.0068         0.001503 C 
     89. D(O   7,F   9,C   0,C   5)      0.0202         0.032536 C 
     90. D(C   0,F   9,N   6,O   7)   -179.9922         0.001500 C 
     91. D(O   7,F   9,O   8,H  12)   -179.9897         0.001500   
     92. D(C   0,F   9,O   8,H  12)      0.0232         0.001500 C 
     93. D(O   8,H  12,H  11,C  13)    129.8027         0.001502 C 
     94. D(O   8,H  12,N   6,F   9)    179.9943         0.001501   
     95. D(H  11,H  12,N   6,O   7)     -0.1748         0.001501   
     96. D(H  11,H  12,N   6,O   8)    179.9811         0.001501   
     97. D(H  11,H  12,N   6,F   9)     -0.0245         0.001501   
     98. D(H  11,H  12,O   8,N   6)     -0.0388         0.001502   
     99. D(N   6,H  12,H  11,H  10)      0.0466         0.001502   
    100. D(N   6,H  12,H  11,C  13)    129.7782         0.001502 C 
    101. D(O   8,H  12,N   6,O   7)    179.8441         0.001501   
    102. D(O   8,H  12,H  11,H  10)      0.0710         0.001502   
    103. D(H  14,C  13,H  11,H  12)    164.5452         0.001500 C 
    104. D(H  14,C  13,H  11,H  10)    -57.3669         0.001500 C 
    105. D(H  15,C  13,H  11,H  12)     55.5218         0.001500 C 
    106. D(H  15,C  13,H  11,H  10)   -166.3903         0.001500 C 
    107. D(H  16,C  13,H  11,H  12)    -57.0228         0.001500 C 
    108. D(H  16,C  13,H  11,H  10)     81.0651         0.001500 C 
    109. D(S  17,C  13,H  11,H  12)    -97.9050         0.001500   
    110. D(S  17,C  13,H  11,H  10)     40.1830         0.001500   
    -----------------------------------------------------------------

Number of atoms                         .... 18
Number of degrees of freedom            .... 110

         *************************************************************
         *                GEOMETRY OPTIMIZATION CYCLE   1            *
         *************************************************************
---------------------------------
CARTESIAN COORDINATES (ANGSTROEM)
---------------------------------
  C      0.000000    0.000000    1.820000
  N      1.178000   -0.196000    2.473000
  C      1.255000   -0.207000    3.829000
  C      0.105000   -0.016000    4.595000
  C     -1.116000    0.187000    3.955000
  C     -1.192000    0.198000    2.551000
  N     -2.456000    0.409000    1.893000
  O     -2.541000    0.423000    0.648000
  O     -3.602000    0.600000    2.632000
  F      0.000000    0.000000    0.470000
  H      2.209000   -0.366000    4.313000
  H      0.163000   -0.026000    5.676000
  H     -2.005000    0.335000    4.557000
  C      2.201000    1.599000    8.372000
  H      2.975000    0.897000    8.695000
  H      1.325000    1.486000    9.017000
  H      2.584000    2.618000    8.468000
  S      1.750000    1.271000    6.657000

----------------------------
CARTESIAN COORDINATES (A.U.)
----------------------------
  NO LB      ZA    FRAG     MASS         X           Y           Z
   0 C     6.0000    1    12.011    0.000000    0.000000    3.439302
   1 N     7.0000    1    14.007    2.226097   -0.370386    4.673293
   2 C     6.0000    1    12.011    2.371606   -0.391173    7.235761
   3 C     6.0000    1    12.011    0.198421   -0.030236    8.683292
   4 C     6.0000    1    12.011   -2.108934    0.353379    7.473867
   5 C     6.0000    1    12.011   -2.252554    0.374166    4.820691
   6 N     7.0000    2    14.007   -4.641167    0.772898    3.577252
   7 O     8.0000    2    15.999   -4.801794    0.799354    1.224543
   8 O     8.0000    2    15.999   -6.806794    1.133836    4.973759
   9 F     9.0000    2    18.998    0.000000    0.000000    0.888171
  10 H     1.0000    2     1.008    4.174405   -0.691640    8.150389
  11 H     1.0000    2     1.008    0.308025   -0.049133   10.726086
  12 H     1.0000    2     1.008   -3.788901    0.633058    8.611482
  13 C     6.0000    3    12.011    4.159287    3.021672   15.820787
  14 H     1.0000    3     1.008    5.621935    1.695084   16.431169
  15 H     1.0000    3     1.008    2.503887    2.808133   17.039661
  16 H     1.0000    3     1.008    4.883052    4.947303   16.002201
  17 S    16.0000    4    32.060    3.307021    2.401842   12.579907

----------------------------------------------
CARTESIAN COORDINATES OF FRAGMENTS (ANGSTROEM)
----------------------------------------------

 FRAGMENT 1 
  C     0.000000    0.000000    1.820000
  N     1.178000   -0.196000    2.473000
  C     1.255000   -0.207000    3.829000
  C     0.105000   -0.016000    4.595000
  C    -1.116000    0.187000    3.955000
  C    -1.192000    0.198000    2.551000

 FRAGMENT 2 
  N    -2.456000    0.409000    1.893000
  O    -2.541000    0.423000    0.648000
  O    -3.602000    0.600000    2.632000
  F     0.000000    0.000000    0.470000
  H     2.209000   -0.366000    4.313000
  H     0.163000   -0.026000    5.676000
  H    -2.005000    0.335000    4.557000

 FRAGMENT 3 
  C     2.201000    1.599000    8.372000
  H     2.975000    0.897000    8.695000
  H     1.325000    1.486000    9.017000
  H     2.584000    2.618000    8.468000

 FRAGMENT 4 
  S     1.750000    1.271000    6.657000

--------------------------------
INTERNAL COORDINATES (ANGSTROEM)
--------------------------------
 C      0   0   0     0.000000000000     0.00000000     0.00000000
 N      1   0   0     1.361069065110     0.00000000     0.00000000
 C      2   1   0     1.358228993948   121.95243626     0.00000000
 C      3   2   1     1.394896770374   120.02620694     0.10655554
 C      4   3   2     1.393431017309   119.34983770   359.90435571
 C      5   4   3     1.406098502951   120.47178172     0.08537773
 N      6   5   4     1.440548853736   120.30882193   180.03842131
 O      7   6   5     1.247976762604   121.13704526   179.93147861
 O      7   6   5     1.376923382037   120.36156660   359.90709941
 F      1   2   3     1.350000000000   118.67037638   179.91115691
 H      3   2   1     1.081504969938   119.86701156   179.98746005
 H      4   3   2     1.082601034546   120.19197482   179.89186186
 H      5   4   3     1.083803026384   118.91636700   180.02085854
 C     12   4   3     3.749997999999   137.98621883    50.55337734
 H     14  12   4     1.093713399388   108.58943105   260.75870815
 H     14  12   4     1.093695570074    86.78532078   151.73530857
 H     14  12   4     1.092824780100   131.12341089    39.19068097
 S     14  12   4     1.803388477284    26.04826296   358.30857907

---------------------------
INTERNAL COORDINATES (A.U.)
---------------------------
 C      0   0   0     0.000000000000     0.00000000     0.00000000
 N      1   0   0     2.572047782411     0.00000000     0.00000000
 C      2   1   0     2.566680825712   121.95243626     0.00000000
 C      3   2   1     2.635972881098   120.02620694     0.10655554
 C      4   3   2     2.633203009226   119.34983770   359.90435571
 C      5   4   3     2.657141087893   120.47178172     0.08537773
 N      6   5   4     2.722242816095   120.30882193   180.03842131
 O      7   6   5     2.358334302820   121.13704526   179.93147861
 O      7   6   5     2.602008099442   120.36156660   359.90709941
 F      1   2   3     2.551130280794   118.67037638   179.91115691
 H      3   2   1     2.043748205657   119.86701156   179.98746005
 H      4   3   2     2.045819467592   120.19197482   179.89186186
 H      5   4   3     2.048090902982   118.91636700   180.02085854
 C     12   4   3     7.086469222751   137.98621883    50.55337734
 H     14  12   4     2.066818793843   108.58943105   260.75870815
 H     14  12   4     2.066785101323    86.78532078   151.73530857
 H     14  12   4     2.065139546751   131.12341089    39.19068097
 S     14  12   4     3.407910335136    26.04826296   358.30857907

---------------------
BASIS SET INFORMATION
---------------------
There are 6 groups of distinct atoms

 Group   1 Type C   : 12s6p1d contracted to 5s4p1d pattern {63111/3111/1}
 Group   2 Type N   : 12s6p1d contracted to 5s4p1d pattern {63111/3111/1}
 Group   3 Type O   : 12s6p1d contracted to 5s4p1d pattern {63111/3111/1}
 Group   4 Type F   : 12s6p1d contracted to 5s4p1d pattern {63111/3111/1}
 Group   5 Type H   : 6s1p contracted to 4s1p pattern {3111/1}
 Group   6 Type S   : 14s10p1d contracted to 7s6p1d pattern {6311111/421111/1}

Atom   0C    basis set group =>   1
Atom   1N    basis set group =>   2
Atom   2C    basis set group =>   1
Atom   3C    basis set group =>   1
Atom   4C    basis set group =>   1
Atom   5C    basis set group =>   1
Atom   6N    basis set group =>   2
Atom   7O    basis set group =>   3
Atom   8O    basis set group =>   3
Atom   9F    basis set group =>   4
Atom  10H    basis set group =>   5
Atom  11H    basis set group =>   5
Atom  12H    basis set group =>   5
Atom  13C    basis set group =>   1
Atom  14H    basis set group =>   5
Atom  15H    basis set group =>   5
Atom  16H    basis set group =>   5
Atom  17S    basis set group =>   6
---------------------------------
AUXILIARY/J BASIS SET INFORMATION
---------------------------------
There are 6 groups of distinct atoms

 Group   1 Type C   : 12s5p4d2f1g contracted to 6s4p3d1f1g pattern {711111/2111/211/2/1}
 Group   2 Type N   : 12s5p4d2f1g contracted to 6s4p3d1f1g pattern {711111/2111/211/2/1}
 Group   3 Type O   : 12s5p4d2f1g contracted to 6s4p3d1f1g pattern {711111/2111/211/2/1}
 Group   4 Type F   : 12s5p4d2f1g contracted to 6s4p3d1f1g pattern {711111/2111/211/2/1}
 Group   5 Type H   : 5s2p1d contracted to 3s1p1d pattern {311/2/1}
 Group   6 Type S   : 14s5p5d2f1g contracted to 8s4p3d1f1g pattern {71111111/2111/311/2/1}

Atom   0C    basis set group =>   1
Atom   1N    basis set group =>   2
Atom   2C    basis set group =>   1
Atom   3C    basis set group =>   1
Atom   4C    basis set group =>   1
Atom   5C    basis set group =>   1
Atom   6N    basis set group =>   2
Atom   7O    basis set group =>   3
Atom   8O    basis set group =>   3
Atom   9F    basis set group =>   4
Atom  10H    basis set group =>   5
Atom  11H    basis set group =>   5
Atom  12H    basis set group =>   5
Atom  13C    basis set group =>   1
Atom  14H    basis set group =>   5
Atom  15H    basis set group =>   5
Atom  16H    basis set group =>   5
Atom  17S    basis set group =>   6


           ************************************************************
           *        Program running with 24 parallel MPI-processes    *
           *              working on a common directory               *
           ************************************************************
------------------------------------------------------------------------------
                           ORCA GTO INTEGRAL CALCULATION
                           -- RI-GTO INTEGRALS CHOSEN --
------------------------------------------------------------------------------
------------------------------------------------------------------------------
                   ___                                                        
                  /   \      - P O W E R E D   B Y -                         
                 /     \                                                     
                 |  |  |   _    _      __       _____    __    __             
                 |  |  |  | |  | |    /  \     |  _  \  |  |  /  |          
                  \  \/   | |  | |   /    \    | | | |  |  | /  /          
                 / \  \   | |__| |  /  /\  \   | |_| |  |  |/  /          
                |  |  |   |  __  | /  /__\  \  |    /   |      \           
                |  |  |   | |  | | |   __   |  |    \   |  |\   \          
                \     /   | |  | | |  |  |  |  | |\  \  |  | \   \       
                 \___/    |_|  |_| |__|  |__|  |_| \__\ |__|  \__/        
                                                                              
                      - O R C A' S   B I G   F R I E N D -                    
                                      &                                       
                       - I N T E G R A L  F E E D E R -                       
                                                                              
 v1 FN, 2020, v2 2021                                                         
------------------------------------------------------------------------------


Reading SHARK input file structure_opt.SHARKINP.tmp ... ok
----------------------
SHARK INTEGRAL PACKAGE
----------------------

Number of atoms                             ...     18
Number of basis functions                   ...    314
Number of shells                            ...    154
Maximum angular momentum                    ...      2
Integral batch strategy                     ... SHARK/LIBINT Hybrid
RI-J (if used) integral strategy            ... SPLIT-RIJ (Revised 2003 algorithm where possible)
Printlevel                                  ...      1
Contraction scheme used                     ... SEGMENTED contraction
Coulomb Range Separation                    ... NOT USED
Exchange Range Separation                   ... Long Range
   Mu parameter                             ...  0.300000
   Scaling (regular/separated)              ...  0.157706  0.842294
Finite Nucleus Model                        ... NOT USED
Auxiliary Coulomb fitting basis             ... AVAILABLE
   # of basis functions in Aux-J            ...    656
   # of shells in Aux-J                     ...    212
   Maximum angular momentum in Aux-J        ...      4
Auxiliary J/K fitting basis                 ... NOT available
Auxiliary Correlation fitting basis         ... NOT available
Auxiliary 'external' fitting basis          ... NOT available
Integral threshold                          ...     2.500000e-11
Primitive cut-off                           ...     2.500000e-12
Primitive pair pre-selection threshold      ...     2.500000e-12

Calculating pre-screening integrals         ... done (  0.0 sec) Dimension = 154
Organizing shell pair data                  ... done (  0.1 sec)
Shell pair information
Total number of shell pairs                 ...     11935
Shell pairs after pre-screening             ...      9657
Total number of primitive shell pairs       ...     38500
Primitive shell pairs kept                  ...     21965
          la=0 lb=0:   2970 shell pairs
          la=1 lb=0:   3968 shell pairs
          la=1 lb=1:   1353 shell pairs
          la=2 lb=0:    777 shell pairs
          la=2 lb=1:    529 shell pairs
          la=2 lb=2:     60 shell pairs

Calculating one electron integrals          ... done (  0.0 sec)
Calculating RI/J V-Matrix + Cholesky decomp.... done (  0.1 sec)
Calculating Nuclear repulsion               ... done (  0.0 sec) ENN=    727.906212484105 Eh

SHARK setup successfully completed in   0.6 seconds

Maximum memory used throughout the entire GTOINT-calculation: 18.2 MB


           ************************************************************
           *        Program running with 24 parallel MPI-processes    *
           *              working on a common directory               *
           ************************************************************
-------------------------------------------------------------------------------
                                 ORCA SCF
-------------------------------------------------------------------------------

------------
SCF SETTINGS
------------
Hamiltonian:
 Density Functional     Method          .... DFT(GTOs)
 Exchange Functional    Exchange        .... WB97X
 Correlation Functional Correlation     .... WB97X
 Gradients option       PostSCFGGA      .... off
 Hybrid DFT is turned on
   Fraction HF Exchange ScalHFX         ....  0.157706
   Scaling of DF-GGA-X  ScalDFX         ....  0.000000
   Scaling of DF-GGA-C  ScalDFC         ....  1.000000
   Scaling of DF-LDA-C  ScalLDAC        ....  1.000000
   Perturbative correction              ....  0.000000
   Density functional embedding theory  .... OFF
 Long-range corrected/Screened/Range-Separated Hybrid DFT is turned on
   Amount of maximum screened exact exchange              ....  0.842294
   Range separation parameter mu (erf(mu*r12)/r12)        ....  0.300000
 RI-approximation to the Coulomb term is turned on
   Number of AuxJ basis functions       .... 656
   RIJ-COSX (HFX calculated with COS-X)).... on


General Settings:
 Integral files         IntName         .... structure_opt
 Hartree-Fock type      HFTyp           .... RHF
 Total Charge           Charge          ....   -1
 Multiplicity           Mult            ....    1
 Number of Electrons    NEL             ....   98
 Basis Dimension        Dim             ....  314
 Nuclear Repulsion      ENuc            ....    727.9062124841 Eh

Convergence Acceleration:
 DIIS                   CNVDIIS         .... on
   Start iteration      DIISMaxIt       ....    12
   Startup error        DIISStart       ....  0.200000
   # of expansion vecs  DIISMaxEq       ....     5
   Bias factor          DIISBfac        ....   1.050
   Max. coefficient     DIISMaxC        ....  10.000
 Trust-Rad. Augm. Hess. CNVTRAH         .... auto
   Auto Start mean grad. ratio tolernc. ....  1.125000
   Auto Start start iteration           ....    20
   Auto Start num. interpolation iter.  ....    10
   Max. Number of Micro iterations      ....    16
   Max. Number of Macro iterations      .... Maxiter - #DIIS iter
   Number of Davidson start vectors     ....     2
   Converg. threshold I  (grad. norm)   ....   1.000e-05
   Converg. threshold II (energy diff.) ....   1.000e-08
   Grad. Scal. Fac. for Micro threshold ....   0.100
   Minimum threshold for Micro iter.    ....   0.010
   NR start threshold (gradient norm)   ....   0.001
   Initial trust radius                 ....   0.400
   Minimum AH scaling param. (alpha)    ....   1.000
   Maximum AH scaling param. (alpha)    .... 1000.000
   Orbital update algorithm             .... Taylor
   White noise on init. David. guess    .... on
   Maximum white noise                  ....   0.010
   Quad. conv. algorithm                .... NR
 SOSCF                  CNVSOSCF        .... on
   Start iteration      SOSCFMaxIt      ....   150
   Startup grad/error   SOSCFStart      ....  0.003300
 Level Shifting         CNVShift        .... on
   Level shift para.    LevelShift      ....    0.2500
   Turn off err/grad.   ShiftErr        ....    0.0010
 Zerner damping         CNVZerner       .... off
 Static damping         CNVDamp         .... on
   Fraction old density DampFac         ....    0.7000
   Max. Damping (<1)    DampMax         ....    0.9800
   Min. Damping (>=0)   DampMin         ....    0.0000
   Turn off err/grad.   DampErr         ....    0.1000
 Fernandez-Rico         CNVRico         .... off

SCF Procedure:
 Maximum # iterations   MaxIter         ....   125
 SCF integral mode      SCFMode         .... Direct
   Integral package                     .... SHARK and LIBINT hybrid scheme
 Reset frequency        DirectResetFreq ....    20
 Integral Threshold     Thresh          ....  2.500e-11 Eh
 Primitive CutOff       TCut            ....  2.500e-12 Eh

Convergence Tolerance:
 Convergence Check Mode ConvCheckMode   .... Total+1el-Energy
 Convergence forced     ConvForced      .... 0
 Energy Change          TolE            ....  1.000e-08 Eh
 1-El. energy change                    ....  1.000e-05 Eh
 Orbital Gradient       TolG            ....  1.000e-05
 Orbital Rotation angle TolX            ....  1.000e-05
 DIIS Error             TolErr          ....  5.000e-07


Diagonalization of the overlap matrix:
Smallest eigenvalue                        ... 3.585e-06
Time for diagonalization                   ...    0.022 sec
Threshold for overlap eigenvalues          ... 1.000e-08
Number of eigenvalues below threshold      ... 0
Time for construction of square roots      ...    0.017 sec
Total time needed                          ...    0.041 sec

Time for model grid setup =    0.491 sec

------------------------------
INITIAL GUESS: MODEL POTENTIAL
------------------------------
Loading Hartree-Fock densities                     ... done
Calculating cut-offs                               ... done
Initializing the effective Hamiltonian             ... done
Setting up the integral package (SHARK)            ... done
Starting the Coulomb interaction                   ... done (   0.1 sec)
Reading the grid                                   ... done
Mapping shells                                     ... done
Starting the XC term evaluation                    ... done (   0.1 sec)
  promolecular density results
     # of electrons  =     96.996228842
     EX              =    -96.567937082
     EC              =     -3.338536600
     EX+EC           =    -99.906473681
Transforming the Hamiltonian                       ... done (   0.0 sec)
Diagonalizing the Hamiltonian                      ... done (   0.0 sec)
Back transforming the eigenvectors                 ... done (   0.0 sec)
Now organizing SCF variables                       ... done
                      ------------------
                      INITIAL GUESS DONE (   0.7 sec)
                      ------------------
-------------------
DFT GRID GENERATION
-------------------

General Integration Accuracy     IntAcc      ... 4.388
Radial Grid Type                 RadialGrid  ... OptM3 with GC (2021)
Angular Grid (max. ang.)         AngularGrid ... 4 (Lebedev-302)
Angular grid pruning method      GridPruning ... 4 (adaptive)
Weight generation scheme         WeightScheme... Becke
Basis function cutoff            BFCut       ... 1.0000e-11
Integration weight cutoff        WCut        ... 1.0000e-14
Angular grids for H and He will be reduced by one unit
Partially contracted basis set               ... off
Rotationally invariant grid construction     ... off

Total number of grid points                  ...    97840
Total number of batches                      ...     1536
Average number of points per batch           ...       63
Average number of grid points per atom       ...     5436
Time for grid setup =    0.696 sec

--------------------
COSX GRID GENERATION
--------------------

GRIDX 1
-------
General Integration Accuracy     IntAcc      ... 3.816
Radial Grid Type                 RadialGrid  ... OptM3 with GC (2021)
Angular Grid (max. ang.)         AngularGrid ... 1 (Lebedev-50)
Angular grid pruning method      GridPruning ... 4 (adaptive)
Weight generation scheme         WeightScheme... Becke
Basis function cutoff            BFCut       ... 1.0000e-11
Integration weight cutoff        WCut        ... 1.0000e-14
Angular grids for H and He will be reduced by one unit
Partially contracted basis set               ... on
Rotationally invariant grid construction     ... off

Total number of grid points                  ...    12217
Total number of batches                      ...      201
Average number of points per batch           ...       60
Average number of grid points per atom       ...      679
UseSFitting                                  ... on

GRIDX 2
-------
General Integration Accuracy     IntAcc      ... 4.020
Radial Grid Type                 RadialGrid  ... OptM3 with GC (2021)
Angular Grid (max. ang.)         AngularGrid ... 2 (Lebedev-110)
Angular grid pruning method      GridPruning ... 4 (adaptive)
Weight generation scheme         WeightScheme... Becke
Basis function cutoff            BFCut       ... 1.0000e-11
Integration weight cutoff        WCut        ... 1.0000e-14
Angular grids for H and He will be reduced by one unit
Partially contracted basis set               ... on
Rotationally invariant grid construction     ... off

Total number of grid points                  ...    30845
Total number of batches                      ...      492
Average number of points per batch           ...       62
Average number of grid points per atom       ...     1714
UseSFitting                                  ... on

GRIDX 3
-------
General Integration Accuracy     IntAcc      ... 4.338
Radial Grid Type                 RadialGrid  ... OptM3 with GC (2021)
Angular Grid (max. ang.)         AngularGrid ... 3 (Lebedev-194)
Angular grid pruning method      GridPruning ... 4 (adaptive)
Weight generation scheme         WeightScheme... Becke
Basis function cutoff            BFCut       ... 1.0000e-11
Integration weight cutoff        WCut        ... 1.0000e-14
Angular grids for H and He will be reduced by one unit
Partially contracted basis set               ... on
Rotationally invariant grid construction     ... off

Total number of grid points                  ...    68385
Total number of batches                      ...     1077
Average number of points per batch           ...       63
Average number of grid points per atom       ...     3799
UseSFitting                                  ... on

Time for X-Grid setup             =    1.383 sec


--------------------
CPCM SOLVATION MODEL
--------------------
CPCM parameters:
  Epsilon                                         ...      78.3550
  Refrac                                          ...       1.3328
  Rsolv                                           ...       1.3000
  Surface type                                    ... GAUSSIAN VDW
  Epsilon function type                           ...         CPCM
Solvent:                                     ... WATER
SMD-CDS solvent descriptors:
  Soln                                       ...    1.3328
  Soln25                                     ...    1.3323
  Sola                                       ...    0.0000
  Solb                                       ...    0.0000
  Solg                                       ...    0.0000
  Solc                                       ...    0.0000
  Solh                                       ...    0.0000
Radii:
 Radius for C  used is    3.4960 Bohr (=   1.8500 Ang.)
 Radius for N  used is    3.5716 Bohr (=   1.8900 Ang.)
 Radius for O  used is    2.8724 Bohr (=   1.5200 Ang.)
 Radius for F  used is    3.2692 Bohr (=   1.7300 Ang.)
 Radius for H  used is    2.2677 Bohr (=   1.2000 Ang.)
 Radius for S  used is    4.7054 Bohr (=   2.4900 Ang.)
Calculating surface                               ...        done! (  0.0s)
GEPOL surface points                              ...         1083
GEPOL Volume                                      ...    1321.8573
GEPOL Surface-area                                ...     761.6128
Calculating surface distance matrix               ...        done! (  0.0s)
Performing Cholesky decomposition & store         ...        done! (  0.1s)
Overall time for CPCM initialization              ...                 0.1s
--------------
SCF ITERATIONS
--------------
ITER       Energy         Delta-E        Max-DP      RMS-DP      [F,P]     Damp
               ***  Starting incremental Fock matrix formation  ***
  0   -989.8650459803   0.000000000000 0.43368058  0.00414915  0.2372282 0.7000
  1   -990.0258658821  -0.160819901890 0.52101067  0.00363066  0.1179595 0.7000
                               ***Turning on DIIS***
  2   -990.0974606325  -0.071594750394 1.95270056  0.01354643  0.0574000 0.0000
  3   -990.2202278271  -0.122767194531 0.99220225  0.00569360  0.0550808 0.0000
  4   -990.2390485295  -0.018820702435 0.33432223  0.00235987  0.0132737 0.0000
  5   -990.2402008945  -0.001152364989 0.13770349  0.00120221  0.0060721 0.0000
                      *** Initiating the SOSCF procedure ***
                           *** Shutting down DIIS ***
                      *** Re-Reading the Fockian *** 
                      *** Removing any level shift *** 
ITER      Energy       Delta-E        Grad      Rot      Max-DP    RMS-DP
  6   -990.24042112  -0.0002202269  0.001143  0.001143  0.044668  0.000518
               *** Restarting incremental Fock matrix formation ***
  7   -990.24048361  -0.0000624840  0.000750  0.001903  0.037819  0.000413
  8   -990.24051734  -0.0000337313  0.000312  0.002070  0.045947  0.000473
  9   -990.24052376  -0.0000064255  0.000618  0.000642  0.019006  0.000179
 10   -990.24052934  -0.0000055736  0.000111  0.000186  0.007296  0.000068
 11   -990.24052943  -0.0000000925  0.000091  0.000125  0.008560  0.000052
 12   -990.24052977  -0.0000003440  0.000016  0.000042  0.004508  0.000031
 13   -990.24052978  -0.0000000072  0.000007  0.000041  0.007827  0.000065
 14   -990.24052978  -0.0000000048  0.000005  0.000006  0.008812  0.000064
                  ***Gradient check signals convergence***
              ***Rediagonalizing the Fockian in SOSCF/NRSCF***

               *****************************************************
               *                     SUCCESS                       *
               *           SCF CONVERGED AFTER  15 CYCLES          *
               *****************************************************

Old exchange energy                            =    -28.439369857 Eh
New exchange energy                            =    -28.439363259 Eh
Exchange energy change after final integration =      0.000006598 Eh
Total energy after final integration           =   -990.240523192 Eh
Final COS-X integration done in                =     3.889 sec

SMD CDS free energy correction energy :                 5.72905     Kcal/mol
Total Energy after SMD CDS correction =              -990.231393368 Eh

----------------
TOTAL SCF ENERGY
----------------

Total Energy       :         -990.23139337 Eh          -26945.56610 eV

Components:
Nuclear Repulsion  :          727.90621248 Eh           19807.33503 eV
Electronic Energy  :        -1718.13760585 Eh          -46752.90113 eV
One Electron Energy:        -2816.91375711 Eh          -76652.12025 eV
Two Electron Energy:         1098.77615126 Eh           29899.21912 eV
Max COSX asymmetry :            0.00000329 Eh               0.00009 eV
CPCM Dielectric    :           -0.09012401 Eh              -2.45240 eV
SMD CDS (Gcds)     :            0.00912982 Eh               0.24844 eV

Virial components:
Potential Energy   :        -1977.60568776 Eh          -53813.38658 eV
Kinetic Energy     :          987.37429439 Eh           26867.82048 eV
Virial Ratio       :            2.00289363


DFT components:
N(Alpha)           :       48.999966126749 electrons
N(Beta)            :       48.999966126749 electrons
N(Total)           :       97.999932253498 electrons
E(XC)              :      -73.374363254985 Eh       
DFET-embed. en.    :        0.000000000000 Eh       
CPCM Solvation Model Properties:
Surface-charge          :            0.94849224
Charge-correction       :           -0.00595429 Eh              -0.16202 eV
Free-energy (cav+disp)  :            0.00912982 Eh               0.24844 eV

---------------
SCF CONVERGENCE
---------------

  Last Energy change         ...   -5.1568e-09  Tolerance :   1.0000e-08
  Last MAX-Density change    ...    1.0658e-14  Tolerance :   1.0000e-07
  Last RMS-Density change    ...    8.1194e-17  Tolerance :   5.0000e-09
  Last Orbital Gradient      ...    1.9100e-06  Tolerance :   1.0000e-05
  Last Orbital Rotation      ...    1.8787e-06  Tolerance :   1.0000e-05

             **** THE GBW FILE WAS UPDATED (structure_opt.gbw) ****
             **** DENSITY structure_opt.scfp WAS UPDATED ****
             **** ENERGY FILE WAS UPDATED (structure_opt.en.tmp) ****
             **** THE GBW FILE WAS UPDATED (structure_opt.gbw) ****
             **** DENSITY structure_opt.scfp WAS UPDATED ****
----------------
ORBITAL ENERGIES
----------------

  NO   OCC          E(Eh)            E(eV) 
   0   2.0000     -88.718528     -2414.1539 
   1   2.0000     -24.790079      -674.5723 
   2   2.0000     -19.273332      -524.4540 
   3   2.0000     -19.241851      -523.5974 
   4   2.0000     -14.667538      -399.1240 
   5   2.0000     -14.430545      -392.6751 
   6   2.0000     -10.431777      -283.8631 
   7   2.0000     -10.358993      -281.8825 
   8   2.0000     -10.329499      -281.0800 
   9   2.0000     -10.312831      -280.6264 
  10   2.0000     -10.274507      -279.5836 
  11   2.0000     -10.234968      -278.5076 
  12   2.0000      -7.915365      -215.3880 
  13   2.0000      -5.878531      -159.9630 
  14   2.0000      -5.871008      -159.7583 
  15   2.0000      -5.870886      -159.7549 
  16   2.0000      -1.393280       -37.9131 
  17   2.0000      -1.346166       -36.6310 
  18   2.0000      -1.149542       -31.2806 
  19   2.0000      -1.103550       -30.0291 
  20   2.0000      -1.003983       -27.3198 
  21   2.0000      -0.935560       -25.4579 
  22   2.0000      -0.869162       -23.6511 
  23   2.0000      -0.836764       -22.7695 
  24   2.0000      -0.791104       -21.5270 
  25   2.0000      -0.763957       -20.7883 
  26   2.0000      -0.702511       -19.1163 
  27   2.0000      -0.684453       -18.6249 
  28   2.0000      -0.670129       -18.2351 
  29   2.0000      -0.663097       -18.0438 
  30   2.0000      -0.659439       -17.9443 
  31   2.0000      -0.629641       -17.1334 
  32   2.0000      -0.617526       -16.8037 
  33   2.0000      -0.606478       -16.5031 
  34   2.0000      -0.558948       -15.2097 
  35   2.0000      -0.530545       -14.4369 
  36   2.0000      -0.523098       -14.2342 
  37   2.0000      -0.521461       -14.1897 
  38   2.0000      -0.494168       -13.4470 
  39   2.0000      -0.493859       -13.4386 
  40   2.0000      -0.454093       -12.3565 
  41   2.0000      -0.430765       -11.7217 
  42   2.0000      -0.419706       -11.4208 
  43   2.0000      -0.412063       -11.2128 
  44   2.0000      -0.405885       -11.0447 
  45   2.0000      -0.395510       -10.7624 
  46   2.0000      -0.366791        -9.9809 
  47   2.0000      -0.261652        -7.1199 
  48   2.0000      -0.258793        -7.0421 
  49   0.0000      -0.062298        -1.6952 
  50   0.0000       0.027615         0.7514 
  51   0.0000       0.052175         1.4197 
  52   0.0000       0.061452         1.6722 
  53   0.0000       0.068295         1.8584 
  54   0.0000       0.071125         1.9354 
  55   0.0000       0.085401         2.3239 
  56   0.0000       0.094236         2.5643 
  57   0.0000       0.097344         2.6489 
  58   0.0000       0.102284         2.7833 
  59   0.0000       0.110370         3.0033 
  60   0.0000       0.120791         3.2869 
  61   0.0000       0.128956         3.5091 
  62   0.0000       0.133549         3.6340 
  63   0.0000       0.140814         3.8318 
  64   0.0000       0.147556         4.0152 
  65   0.0000       0.159553         4.3417 
  66   0.0000       0.162658         4.4261 
  67   0.0000       0.165092         4.4924 
  68   0.0000       0.168582         4.5874 
  69   0.0000       0.174973         4.7612 
  70   0.0000       0.177110         4.8194 
  71   0.0000       0.183147         4.9837 
  72   0.0000       0.185941         5.0597 
  73   0.0000       0.192913         5.2494 
  74   0.0000       0.194288         5.2868 
  75   0.0000       0.199618         5.4319 
  76   0.0000       0.206585         5.6215 
  77   0.0000       0.209461         5.6997 
  78   0.0000       0.214004         5.8233 
  79   0.0000       0.225253         6.1295 
  80   0.0000       0.227680         6.1955 
  81   0.0000       0.234992         6.3945 
  82   0.0000       0.240003         6.5308 
  83   0.0000       0.242135         6.5888 
  84   0.0000       0.247413         6.7324 
  85   0.0000       0.254216         6.9176 
  86   0.0000       0.258301         7.0287 
  87   0.0000       0.260102         7.0777 
  88   0.0000       0.266759         7.2589 
  89   0.0000       0.267531         7.2799 
  90   0.0000       0.279771         7.6130 
  91   0.0000       0.281562         7.6617 
  92   0.0000       0.286484         7.7956 
  93   0.0000       0.295590         8.0434 
  94   0.0000       0.304134         8.2759 
  95   0.0000       0.308714         8.4005 
  96   0.0000       0.314035         8.5453 
  97   0.0000       0.318390         8.6638 
  98   0.0000       0.327723         8.9178 
  99   0.0000       0.330729         8.9996 
 100   0.0000       0.339563         9.2400 
 101   0.0000       0.349885         9.5208 
 102   0.0000       0.353483         9.6187 
 103   0.0000       0.355339         9.6693 
 104   0.0000       0.374146        10.1810 
 105   0.0000       0.376637        10.2488 
 106   0.0000       0.384460        10.4617 
 107   0.0000       0.390601        10.6288 
 108   0.0000       0.402231        10.9453 
 109   0.0000       0.408366        11.1122 
 110   0.0000       0.413713        11.2577 
 111   0.0000       0.420265        11.4360 
 112   0.0000       0.429823        11.6961 
 113   0.0000       0.433865        11.8061 
 114   0.0000       0.447254        12.1704 
 115   0.0000       0.463163        12.6033 
 116   0.0000       0.473682        12.8895 
 117   0.0000       0.488782        13.3004 
 118   0.0000       0.491127        13.3643 
 119   0.0000       0.496319        13.5055 
 120   0.0000       0.505533        13.7563 
 121   0.0000       0.508674        13.8417 
 122   0.0000       0.525062        14.2877 
 123   0.0000       0.542271        14.7559 
 124   0.0000       0.554524        15.0894 
 125   0.0000       0.560934        15.2638 
 126   0.0000       0.589862        16.0510 
 127   0.0000       0.622316        16.9341 
 128   0.0000       0.633605        17.2413 
 129   0.0000       0.638656        17.3787 
 130   0.0000       0.646270        17.5859 
 131   0.0000       0.655344        17.8328 
 132   0.0000       0.672868        18.3097 
 133   0.0000       0.691567        18.8185 
 134   0.0000       0.711110        19.3503 
 135   0.0000       0.727754        19.8032 
 136   0.0000       0.729651        19.8548 
 137   0.0000       0.740995        20.1635 
 138   0.0000       0.753347        20.4996 
 139   0.0000       0.772845        21.0302 
 140   0.0000       0.779690        21.2165 
 141   0.0000       0.785259        21.3680 
 142   0.0000       0.812637        22.1130 
 143   0.0000       0.828811        22.5531 
 144   0.0000       0.844073        22.9684 
 145   0.0000       0.865388        23.5484 
 146   0.0000       0.876762        23.8579 
 147   0.0000       0.879995        23.9459 
 148   0.0000       0.908348        24.7174 
 149   0.0000       0.911724        24.8093 
 150   0.0000       0.920511        25.0484 
 151   0.0000       0.944241        25.6941 
 152   0.0000       0.956950        26.0399 
 153   0.0000       0.967967        26.3397 
 154   0.0000       0.988968        26.9112 
 155   0.0000       0.992551        27.0087 
 156   0.0000       0.998813        27.1791 
 157   0.0000       1.001414        27.2499 
 158   0.0000       1.024573        27.8801 
 159   0.0000       1.032999        28.1093 
 160   0.0000       1.043069        28.3834 
 161   0.0000       1.055477        28.7210 
 162   0.0000       1.067349        29.0440 
 163   0.0000       1.081711        29.4349 
 164   0.0000       1.088245        29.6126 
 165   0.0000       1.098733        29.8980 
 166   0.0000       1.130129        30.7524 
 167   0.0000       1.144862        31.1533 
 168   0.0000       1.167737        31.7757 
 169   0.0000       1.177878        32.0517 
 170   0.0000       1.194995        32.5175 
 171   0.0000       1.197157        32.5763 
 172   0.0000       1.216847        33.1121 
 173   0.0000       1.226426        33.3727 
 174   0.0000       1.256235        34.1839 
 175   0.0000       1.264781        34.4164 
 176   0.0000       1.277246        34.7556 
 177   0.0000       1.287558        35.0362 
 178   0.0000       1.298255        35.3273 
 179   0.0000       1.303319        35.4651 
 180   0.0000       1.316163        35.8146 
 181   0.0000       1.363842        37.1120 
 182   0.0000       1.402063        38.1521 
 183   0.0000       1.412398        38.4333 
 184   0.0000       1.483257        40.3615 
 185   0.0000       1.519176        41.3389 
 186   0.0000       1.547379        42.1063 
 187   0.0000       1.589785        43.2603 
 188   0.0000       1.589986        43.2657 
 189   0.0000       1.604176        43.6518 
 190   0.0000       1.627467        44.2856 
 191   0.0000       1.647157        44.8214 
 192   0.0000       1.661117        45.2013 
 193   0.0000       1.662034        45.2262 
 194   0.0000       1.702126        46.3172 
 195   0.0000       1.707267        46.4571 
 196   0.0000       1.718453        46.7615 
 197   0.0000       1.720085        46.8059 
 198   0.0000       1.757512        47.8243 
 199   0.0000       1.768196        48.1151 
 200   0.0000       1.791042        48.7367 
 201   0.0000       1.801607        49.0242 
 202   0.0000       1.812342        49.3163 
 203   0.0000       1.836700        49.9792 
 204   0.0000       1.863634        50.7121 
 205   0.0000       1.880358        51.1671 
 206   0.0000       1.898638        51.6646 
 207   0.0000       1.916636        52.1543 
 208   0.0000       1.938654        52.7535 
 209   0.0000       1.952776        53.1377 
 210   0.0000       1.979849        53.8744 
 211   0.0000       1.995122        54.2900 
 212   0.0000       1.998997        54.3955 
 213   0.0000       2.027101        55.1602 
 214   0.0000       2.053779        55.8862 
 215   0.0000       2.065207        56.1971 
 216   0.0000       2.097590        57.0783 
 217   0.0000       2.126556        57.8665 
 218   0.0000       2.151088        58.5341 
 219   0.0000       2.153886        58.6102 
 220   0.0000       2.176055        59.2135 
 221   0.0000       2.181466        59.3607 
 222   0.0000       2.212283        60.1993 
 223   0.0000       2.222144        60.4676 
 224   0.0000       2.301553        62.6285 
 225   0.0000       2.328964        63.3743 
 226   0.0000       2.342932        63.7544 
 227   0.0000       2.344934        63.8089 
 228   0.0000       2.408333        65.5341 
 229   0.0000       2.444188        66.5097 
 230   0.0000       2.510361        68.3104 
 231   0.0000       2.577099        70.1264 
 232   0.0000       2.601547        70.7917 
 233   0.0000       2.611487        71.0622 
 234   0.0000       2.613620        71.1202 
 235   0.0000       2.635559        71.7172 
 236   0.0000       2.670985        72.6812 
 237   0.0000       2.675849        72.8135 
 238   0.0000       2.677939        72.8704 
 239   0.0000       2.681244        72.9604 
 240   0.0000       2.712217        73.8032 
 241   0.0000       2.786409        75.8220 
 242   0.0000       2.794800        76.0504 
 243   0.0000       2.841515        77.3216 
 244   0.0000       2.858821        77.7925 
 245   0.0000       2.877839        78.3100 
 246   0.0000       2.885616        78.5216 
 247   0.0000       2.898263        78.8657 
 248   0.0000       2.906421        79.0877 
 249   0.0000       2.917727        79.3954 
 250   0.0000       2.942679        80.0744 
 251   0.0000       2.959979        80.5451 
 252   0.0000       2.969923        80.8157 
 253   0.0000       2.991136        81.3929 
 254   0.0000       2.996240        81.5318 
 255   0.0000       3.012099        81.9634 
 256   0.0000       3.046982        82.9126 
 257   0.0000       3.121962        84.9529 
 258   0.0000       3.156827        85.9016 
 259   0.0000       3.193437        86.8978 
 260   0.0000       3.274633        89.1073 
 261   0.0000       3.310444        90.0818 
 262   0.0000       3.319538        90.3292 
 263   0.0000       3.373572        91.7996 
 264   0.0000       3.383141        92.0599 
 265   0.0000       3.467160        94.3462 
 266   0.0000       3.504652        95.3664 
 267   0.0000       3.573376        97.2365 
 268   0.0000       3.613489        98.3280 
 269   0.0000       3.683823       100.2419 
 270   0.0000       3.706754       100.8659 
 271   0.0000       3.765448       102.4630 
 272   0.0000       3.856983       104.9538 
 273   0.0000       3.890758       105.8729 
 274   0.0000       3.891756       105.9001 
 275   0.0000       3.893312       105.9424 
 276   0.0000       3.910077       106.3986 
 277   0.0000       3.928094       106.8889 
 278   0.0000       4.025728       109.5456 
 279   0.0000       4.066540       110.6562 
 280   0.0000       4.129509       112.3697 
 281   0.0000       4.163616       113.2978 
 282   0.0000       4.172744       113.5461 
 283   0.0000       4.417076       120.1947 
 284   0.0000       4.489531       122.1663 
 285   0.0000       4.507918       122.6667 
 286   0.0000       4.766270       129.6968 
 287   0.0000       4.946323       134.5963 
 288   0.0000       5.075442       138.1098 
 289   0.0000       5.101593       138.8214 
 290   0.0000       5.192974       141.3080 
 291   0.0000       5.225644       142.1970 
 292   0.0000       5.324276       144.8809 
 293   0.0000       5.701785       155.1534 
 294   0.0000       6.134121       166.9179 
 295   0.0000       6.418014       174.6430 
 296   0.0000       6.543507       178.0579 
 297   0.0000       6.843753       186.2280 
 298   0.0000       8.043558       218.8763 
 299   0.0000      17.567005       478.0225 
 300   0.0000      17.576721       478.2869 
 301   0.0000      17.699515       481.6283 
 302   0.0000      23.658831       643.7895 
 303   0.0000      23.904316       650.4695 
 304   0.0000      23.992274       652.8630 
 305   0.0000      24.041973       654.2153 
 306   0.0000      24.081274       655.2848 
 307   0.0000      24.196290       658.4145 
 308   0.0000      35.378222       962.6904 
 309   0.0000      35.664880       970.4907 
 310   0.0000      49.902124      1357.9058 
 311   0.0000      49.965940      1359.6424 
 312   0.0000      66.797283      1817.6465 
 313   0.0000     189.046595      5144.2194 

--------------------
FRAGMENT INFORMATION
--------------------
Fragment  1:    0   1   2   3   4   5 
Fragment  2:    6   7   8   9  10  11  12 
Fragment  3:   13  14  15  16 
Fragment  4:   17 


                    ********************************
                    * MULLIKEN POPULATION ANALYSIS *
                    ********************************

-------------------------
MULLIKEN FRAGMENT CHARGES
-------------------------
 Fragment   0 :  -0.268862
 Fragment   1 :   0.265761
 Fragment   2 :  -0.059152
 Fragment   3 :  -0.937747
Sum of fragment charges:   -1.0000000

---------------------------------
MULLIKEN FRAGMENT OVERLAP CHARGES
---------------------------------
                  0          1          2          3    
      0      14.859386   0.335104  -0.041149  -0.717883
      1       0.335104  35.038462  -0.031111   0.220923
      2      -0.041149  -0.031111  11.956085  -0.907720
      3      -0.717883   0.220923  -0.907720  17.640087

-----------------------
MULLIKEN ATOMIC CHARGES
-----------------------
   0 C :   -0.062972
   1 N :   -0.198533
   2 C :   -0.185781
   3 C :   -0.155391
   4 C :    0.413593
   5 C :   -0.079778
   6 N :   -0.075308
   7 O :   -0.057091
   8 O :   -0.240640
   9 F :   -0.106237
  10 H :    0.253880
  11 H :    0.160720
  12 H :    0.330437
  13 C :   -0.461800
  14 H :    0.134618
  15 H :    0.137691
  16 H :    0.130339
  17 S :   -0.937747
Sum of atomic charges:   -1.0000000

--------------------------------
MULLIKEN REDUCED ORBITAL CHARGES
--------------------------------
  0 C s       :     3.313930  s :     3.313930
      pz      :     0.670376  p :     2.589052
      px      :     0.968587
      py      :     0.950090
      dz2     :     0.052733  d :     0.159990
      dxz     :     0.048592
      dyz     :     0.028154
      dx2y2   :     0.013782
      dxy     :     0.016729
  1 N s       :     3.616873  s :     3.616873
      pz      :     1.159537  p :     3.551107
      px      :     1.239087
      py      :     1.152483
      dz2     :     0.008090  d :     0.030553
      dxz     :     0.007288
      dyz     :     0.004832
      dx2y2   :     0.005477
      dxy     :     0.004866
  2 C s       :     3.318726  s :     3.318726
      pz      :     0.810782  p :     2.782971
      px      :     1.089353
      py      :     0.882836
      dz2     :     0.024050  d :     0.084083
      dxz     :     0.031841
      dyz     :     0.014594
      dx2y2   :     0.007270
      dxy     :     0.006329
  3 C s       :     3.240133  s :     3.240133
      pz      :     1.060012  p :     2.861738
      px      :     0.858682
      py      :     0.943044
      dz2     :     0.014215  d :     0.053520
      dxz     :     0.018271
      dyz     :     0.005883
      dx2y2   :     0.008104
      dxy     :     0.007048
  4 C s       :     2.425638  s :     2.425638
      pz      :     0.944065  p :     3.103316
      px      :     1.287229
      py      :     0.872022
      dz2     :     0.017068  d :     0.057453
      dxz     :     0.016051
      dyz     :     0.010421
      dx2y2   :     0.007223
      dxy     :     0.006690
  5 C s       :     3.364073  s :     3.364073
      pz      :     1.041905  p :     2.642188
      px      :     0.469291
      py      :     1.130992
      dz2     :     0.013515  d :     0.073516
      dxz     :     0.029931
      dyz     :     0.010757
      dx2y2   :     0.011190
      dxy     :     0.008124
  6 N s       :     3.587590  s :     3.587590
      pz      :     1.067566  p :     3.378682
      px      :     1.216275
      py      :     1.094841
      dz2     :     0.027752  d :     0.109037
      dxz     :     0.039289
      dyz     :     0.023074
      dx2y2   :     0.008546
      dxy     :     0.010375
  7 O s       :     3.776494  s :     3.776494
      pz      :     1.027613  p :     4.261946
      px      :     1.828577
      py      :     1.405756
      dz2     :     0.009696  d :     0.018651
      dxz     :     0.003502
      dyz     :     0.005285
      dx2y2   :     0.000102
      dxy     :     0.000066
  8 O s       :     3.823405  s :     3.823405
      pz      :     1.623816  p :     4.405150
      px      :     1.218147
      py      :     1.563188
      dz2     :     0.001057  d :     0.012085
      dxz     :     0.004895
      dyz     :     0.000877
      dx2y2   :     0.003108
      dxy     :     0.002148
  9 F s       :     3.917411  s :     3.917411
      pz      :     1.391641  p :     5.183519
      px      :     1.915874
      py      :     1.876004
      dz2     :     0.003078  d :     0.005306
      dxz     :     0.000992
      dyz     :     0.001199
      dx2y2   :     0.000028
      dxy     :     0.000009
 10 H s       :     0.721495  s :     0.721495
      pz      :     0.006313  p :     0.024625
      px      :     0.014008
      py      :     0.004305
 11 H s       :     0.807017  s :     0.807017
      pz      :     0.021376  p :     0.032263
      px      :     0.005150
      py      :     0.005737
 12 H s       :     0.644100  s :     0.644100
      pz      :     0.007715  p :     0.025463
      px      :     0.013243
      py      :     0.004505
 13 C s       :     3.332923  s :     3.332923
      pz      :     0.966717  p :     3.076433
      px      :     1.052504
      py      :     1.057213
      dz2     :     0.012224  d :     0.052443
      dxz     :     0.015476
      dyz     :     0.007940
      dx2y2   :     0.007116
      dxy     :     0.009689
 14 H s       :     0.842692  s :     0.842692
      pz      :     0.005467  p :     0.022690
      px      :     0.009022
      py      :     0.008201
 15 H s       :     0.839607  s :     0.839607
      pz      :     0.007779  p :     0.022702
      px      :     0.010167
      py      :     0.004756
 16 H s       :     0.846917  s :     0.846917
      pz      :     0.004818  p :     0.022744
      px      :     0.005748
      py      :     0.012178
 17 S s       :     5.958374  s :     5.958374
      pz      :     3.077517  p :    10.946811
      px      :     3.923554
      py      :     3.945740
      dz2     :     0.017585  d :     0.032562
      dxz     :     0.007792
      dyz     :     0.005793
      dx2y2   :     0.000470
      dxy     :     0.000921


                     *******************************
                     * LOEWDIN POPULATION ANALYSIS *
                     *******************************

------------------------
LOEWDIN FRAGMENT CHARGES
------------------------
 Fragment   0 :  -0.088700
 Fragment   1 :  -0.125225
 Fragment   2 :  -0.316309
 Fragment   3 :  -0.469767

----------------------------
LOEWDIN FRAGMENT BOND ORDERS
----------------------------
                  0          1          2          3    
      0      57.030591   6.736210   0.040481   0.376423
      1       6.736210  43.837476   0.015981   0.172956
      2       0.040481   0.015981  15.344246   1.663082
      3       0.376423   0.172956   1.663082  16.469767

----------------------
LOEWDIN ATOMIC CHARGES
----------------------
   0 C :    0.104278
   1 N :   -0.114557
   2 C :    0.029923
   3 C :   -0.100715
   4 C :    0.059812
   5 C :   -0.067441
   6 N :    0.240765
   7 O :   -0.159354
   8 O :   -0.344102
   9 F :   -0.082549
  10 H :    0.074460
  11 H :    0.048788
  12 H :    0.096766
  13 C :   -0.337258
  14 H :    0.006934
  15 H :    0.006843
  16 H :    0.007173
  17 S :   -0.469767

-------------------------------
LOEWDIN REDUCED ORBITAL CHARGES
-------------------------------
  0 C s       :     2.743392  s :     2.743392
      pz      :     0.847803  p :     2.823408
      px      :     1.081146
      py      :     0.894459
      dz2     :     0.112627  d :     0.328921
      dxz     :     0.100443
      dyz     :     0.050156
      dx2y2   :     0.033838
      dxy     :     0.031858
  1 N s       :     3.150839  s :     3.150839
      pz      :     1.303003  p :     3.906599
      px      :     1.416719
      py      :     1.186877
      dz2     :     0.017236  d :     0.057118
      dxz     :     0.015934
      dyz     :     0.007969
      dx2y2   :     0.009527
      dxy     :     0.006453
  2 C s       :     2.789162  s :     2.789162
      pz      :     1.056350  p :     2.998708
      px      :     1.103372
      py      :     0.838986
      dz2     :     0.061356  d :     0.182207
      dxz     :     0.068650
      dyz     :     0.027676
      dx2y2   :     0.014128
      dxy     :     0.010397
  3 C s       :     2.790555  s :     2.790555
      pz      :     1.122137  p :     3.185059
      px      :     1.112666
      py      :     0.950255
      dz2     :     0.032611  d :     0.125102
      dxz     :     0.046256
      dyz     :     0.009197
      dx2y2   :     0.022322
      dxy     :     0.014716
  4 C s       :     2.778620  s :     2.778620
      pz      :     1.066395  p :     3.031792
      px      :     1.110938
      py      :     0.854460
      dz2     :     0.042140  d :     0.129775
      dxz     :     0.040019
      dyz     :     0.021071
      dx2y2   :     0.014981
      dxy     :     0.011565
  5 C s       :     2.758193  s :     2.758193
      pz      :     1.090122  p :     3.127970
      px      :     0.955985
      py      :     1.081863
      dz2     :     0.039687  d :     0.181278
      dxz     :     0.072150
      dyz     :     0.020679
      dx2y2   :     0.031425
      dxy     :     0.017337
  6 N s       :     3.052588  s :     3.052588
      pz      :     1.205996  p :     3.500190
      px      :     1.216082
      py      :     1.078113
      dz2     :     0.060492  d :     0.206458
      dxz     :     0.076060
      dyz     :     0.035742
      dx2y2   :     0.017497
      dxy     :     0.016666
  7 O s       :     3.580910  s :     3.580910
      pz      :     1.284530  p :     4.546192
      px      :     1.839448
      py      :     1.422214
      dz2     :     0.020403  d :     0.032253
      dxz     :     0.005155
      dyz     :     0.006505
      dx2y2   :     0.000119
      dxy     :     0.000071
  8 O s       :     3.667088  s :     3.667088
      pz      :     1.710314  p :     4.656571
      px      :     1.371054
      py      :     1.575204
      dz2     :     0.001545  d :     0.020442
      dxz     :     0.009251
      dyz     :     0.001169
      dx2y2   :     0.005697
      dxy     :     0.002781
  9 F s       :     3.714803  s :     3.714803
      pz      :     1.537314  p :     5.360400
      px      :     1.934839
      py      :     1.888247
      dz2     :     0.004732  d :     0.007346
      dxz     :     0.001182
      dyz     :     0.001386
      dx2y2   :     0.000037
      dxy     :     0.000009
 10 H s       :     0.853371  s :     0.853371
      pz      :     0.018334  p :     0.072168
      px      :     0.042344
      py      :     0.011491
 11 H s       :     0.859378  s :     0.859378
      pz      :     0.061139  p :     0.091833
      px      :     0.015379
      py      :     0.015315
 12 H s       :     0.830245  s :     0.830245
      pz      :     0.023002  p :     0.072989
      px      :     0.038236
      py      :     0.011751
 13 C s       :     2.851313  s :     2.851313
      pz      :     1.145944  p :     3.379323
      px      :     1.116615
      py      :     1.116764
      dz2     :     0.027275  d :     0.106622
      dxz     :     0.031502
      dyz     :     0.016011
      dx2y2   :     0.013330
      dxy     :     0.018504
 14 H s       :     0.921167  s :     0.921167
      pz      :     0.017816  p :     0.071899
      px      :     0.028622
      py      :     0.025462
 15 H s       :     0.921409  s :     0.921409
      pz      :     0.025779  p :     0.071748
      px      :     0.032059
      py      :     0.013910
 16 H s       :     0.920458  s :     0.920458
      pz      :     0.015581  p :     0.072370
      px      :     0.017450
      py      :     0.039339
 17 S s       :     5.540362  s :     5.540362
      pz      :     3.201967  p :    10.890305
      px      :     3.825617
      py      :     3.862721
      dz2     :     0.021425  d :     0.039100
      dxz     :     0.009284
      dyz     :     0.006776
      dx2y2   :     0.000532
      dxy     :     0.001082


                      *****************************
                      * MAYER POPULATION ANALYSIS *
                      *****************************

  NA   - Mulliken gross atomic population
  ZA   - Total nuclear charge
  QA   - Mulliken gross atomic charge
  VA   - Mayer's total valence
  BVA  - Mayer's bonded valence
  FA   - Mayer's free valence

  ATOM       NA         ZA         QA         VA         BVA        FA
  0 C      6.0630     6.0000    -0.0630     4.3010     4.3010    -0.0000
  1 N      7.1985     7.0000    -0.1985     2.7470     2.7470     0.0000
  2 C      6.1858     6.0000    -0.1858     3.8046     3.8046     0.0000
  3 C      6.1554     6.0000    -0.1554     4.1921     4.1921    -0.0000
  4 C      5.5864     6.0000     0.4136     4.1613     4.1613    -0.0000
  5 C      6.0798     6.0000    -0.0798     3.2577     3.2577    -0.0000
  6 N      7.0753     7.0000    -0.0753     3.9288     3.9288     0.0000
  7 O      8.0571     8.0000    -0.0571     2.1919     2.1919    -0.0000
  8 O      8.2406     8.0000    -0.2406     1.9900     1.9900    -0.0000
  9 F      9.1062     9.0000    -0.1062     0.9565     0.9565    -0.0000
 10 H      0.7461     1.0000     0.2539     0.9282     0.9282     0.0000
 11 H      0.8393     1.0000     0.1607     1.0584     1.0584    -0.0000
 12 H      0.6696     1.0000     0.3304     0.8159     0.8159    -0.0000
 13 C      6.4618     6.0000    -0.4618     3.6454     3.6454    -0.0000
 14 H      0.8654     1.0000     0.1346     0.9291     0.9291     0.0000
 15 H      0.8623     1.0000     0.1377     0.9210     0.9210    -0.0000
 16 H      0.8697     1.0000     0.1303     0.9465     0.9465    -0.0000
 17 S     16.9377    16.0000    -0.9377     0.6269     0.6269     0.0000

  Mayer bond orders larger than 0.100000
B(  0-C ,  1-N ) :   1.3040 B(  0-C ,  2-C ) :   0.1618 B(  0-C ,  3-C ) :   0.1593 
B(  0-C ,  4-C ) :   0.2228 B(  0-C ,  5-C ) :   1.2123 B(  0-C ,  6-N ) :  -0.1715 
B(  0-C ,  9-F ) :   1.4144 B(  1-N ,  2-C ) :   1.2120 B(  1-N ,  3-C ) :   0.1365 
B(  1-N ,  5-C ) :   0.1531 B(  2-C ,  3-C ) :   1.4554 B(  2-C , 10-H ) :   0.9136 
B(  3-C ,  4-C ) :   1.5542 B(  3-C ,  8-O ) :   0.1758 B(  3-C , 11-H ) :   0.8817 
B(  3-C , 17-S ) :  -0.3587 B(  4-C ,  5-C ) :   1.4767 B(  4-C ,  6-N ) :  -0.1459 
B(  4-C ,  8-O ) :   0.1416 B(  4-C ,  9-F ) :  -0.1368 B(  4-C , 12-H ) :   0.7513 
B(  4-C , 17-S ) :   0.1721 B(  5-C ,  6-N ) :   0.7567 B(  5-C ,  7-O ) :  -0.1010 
B(  5-C ,  8-O ) :  -0.1621 B(  5-C ,  9-F ) :  -0.3793 B(  5-C , 12-H ) :   0.1110 
B(  6-N ,  7-O ) :   1.8538 B(  6-N ,  8-O ) :   1.6478 B(  7-O ,  8-O ) :   0.2546 
B( 11-H , 17-S ) :   0.1724 B( 13-C , 14-H ) :   0.9813 B( 13-C , 15-H ) :   0.9840 
B( 13-C , 16-H ) :   0.9979 B( 13-C , 17-S ) :   0.7026 

-------
TIMINGS
-------

Total SCF time: 0 days 0 hours 0 min 43 sec 

[...]
 292   0.0000       5.388204       146.6205 
 293   0.0000       5.851197       159.2192 
 294   0.0000       6.343237       172.6083 
 295   0.0000       6.427556       174.9027 
 296   0.0000       6.554162       178.3478 
 297   0.0000       6.863587       186.7677 
 298   0.0000       8.044208       218.8940 
 299   0.0000      17.567397       478.0332 
 300   0.0000      17.577372       478.3046 
 301   0.0000      17.700005       481.6416 
 302   0.0000      23.702146       644.9682 
 303   0.0000      23.959651       651.9752 
 304   0.0000      24.028152       653.8393 
 305   0.0000      24.041445       654.2010 
 306   0.0000      24.131488       656.6512 
 307   0.0000      24.272861       660.4981 
 308   0.0000      35.453451       964.7375 
 309   0.0000      35.742374       972.5994 
 310   0.0000      49.925150      1358.5324 
 311   0.0000      50.032774      1361.4610 
 312   0.0000      66.810350      1818.0020 
 313   0.0000     189.047273      5144.2378 

--------------------
FRAGMENT INFORMATION
--------------------
Fragment  1:    0   1   2   3   4   5 
Fragment  2:    6   7   8   9  10  11  12 
Fragment  3:   13  14  15  16 
Fragment  4:   17 


                    ********************************
                    * MULLIKEN POPULATION ANALYSIS *
                    ********************************

-------------------------
MULLIKEN FRAGMENT CHARGES
-------------------------
 Fragment   0 :  -0.305809
 Fragment   1 :   0.302674
 Fragment   2 :  -0.058795
 Fragment   3 :  -0.938070
Sum of fragment charges:   -1.0000000

---------------------------------
MULLIKEN FRAGMENT OVERLAP CHARGES
---------------------------------
                  0          1          2          3    
      0      11.793452   0.212714  -0.038169  -0.728110
      1       0.212714  35.109180  -0.032861   0.230340
      2      -0.038169  -0.032861  11.958916  -0.909805
      3      -0.728110   0.230340  -0.909805  17.641857

-----------------------
MULLIKEN ATOMIC CHARGES
-----------------------
   0 C :   -0.022680
   1 N :   -0.193505
   2 C :   -0.153795
   3 C :   -0.247281
   4 C :    0.521921
   5 C :   -0.210469
   6 N :   -0.014948
   7 O :   -0.167345
   8 O :   -0.116610
   9 F :   -0.122815
  10 H :    0.242641
  11 H :    0.150699
  12 H :    0.331052
  13 C :   -0.460914
  14 H :    0.134472
  15 H :    0.137560
  16 H :    0.130087
  17 S :   -0.938070
Sum of atomic charges:   -1.0000000

--------------------------------
MULLIKEN REDUCED ORBITAL CHARGES
--------------------------------
  0 C s       :     3.262012  s :     3.262012
      pz      :     0.663181  p :     2.591755
      px      :     0.973001
      py      :     0.955574
      dz2     :     0.057206  d :     0.168913
      dxz     :     0.049785
      dyz     :     0.029039
      dx2y2   :     0.014616
      dxy     :     0.018268
  1 N s       :     3.595413  s :     3.595413
      pz      :     1.164473  p :     3.563870
      px      :     1.256623
      py      :     1.142774
      dz2     :     0.008524  d :     0.034222
      dxz     :     0.008701
      dyz     :     0.005396
      dx2y2   :     0.005894
      dxy     :     0.005707
  2 C s       :     3.266191  s :     3.266191
      pz      :     0.818332  p :     2.798613
      px      :     1.081464
      py      :     0.898817
      dz2     :     0.024893  d :     0.088992
      dxz     :     0.034558
      dyz     :     0.015557
      dx2y2   :     0.007427
      dxy     :     0.006556
  3 C s       :     3.301362  s :     3.301362
      pz      :     1.063950  p :     2.889709
      px      :     0.883064
      py      :     0.942695
      dz2     :     0.014831  d :     0.056210
      dxz     :     0.019295
      dyz     :     0.006250
      dx2y2   :     0.008261
      dxy     :     0.007573
  4 C s       :     2.270530  s :     2.270530
      pz      :     0.976567  p :     3.147475
      px      :     1.293722
      py      :     0.877186
      dz2     :     0.017735  d :     0.060074
      dxz     :     0.016412
      dyz     :     0.011070
      dx2y2   :     0.007769
      dxy     :     0.007088
  5 C s       :     3.437566  s :     3.437566
      pz      :     1.067397  p :     2.699193
      px      :     0.494822
      py      :     1.136974
      dz2     :     0.012929  d :     0.073710
      dxz     :     0.031133
      dyz     :     0.010635
      dx2y2   :     0.010918
      dxy     :     0.008095
  6 N s       :     3.486319  s :     3.486319
      pz      :     1.051722  p :     3.389920
      px      :     1.236259
      py      :     1.101938
      dz2     :     0.037732  d :     0.138708
      dxz     :     0.045276
      dyz     :     0.028702
      dx2y2   :     0.011944
      dxy     :     0.015054
  7 O s       :     3.802266  s :     3.802266
      pz      :     1.023779  p :     4.346955
      px      :     1.842310
      py      :     1.480867
      dz2     :     0.009769  d :     0.018124
      dxz     :     0.003218
      dyz     :     0.004993
      dx2y2   :     0.000091
      dxy     :     0.000052
  8 O s       :     3.782007  s :     3.782007
      pz      :     1.559703  p :     4.314551
      px      :     1.318546
      py      :     1.436302
      dz2     :     0.002368  d :     0.020053
      dxz     :     0.007336
      dyz     :     0.001979
      dx2y2   :     0.004306
      dxy     :     0.004063
  9 F s       :     3.917132  s :     3.917132
      pz      :     1.401625  p :     5.200474
      px      :     1.917817
      py      :     1.881033
      dz2     :     0.003028  d :     0.005209
      dxz     :     0.000970
      dyz     :     0.001171
      dx2y2   :     0.000030
      dxy     :     0.000010
 10 H s       :     0.733310  s :     0.733310
      pz      :     0.006148  p :     0.024049
      px      :     0.013737
      py      :     0.004164
 11 H s       :     0.816537  s :     0.816537
      pz      :     0.021258  p :     0.032764
      px      :     0.005693
      py      :     0.005814
 12 H s       :     0.643702  s :     0.643702
      pz      :     0.007350  p :     0.025246
      px      :     0.013556
      py      :     0.004340
 13 C s       :     3.332551  s :     3.332551
      pz      :     0.967019  p :     3.075907
      px      :     1.051809
      py      :     1.057079
      dz2     :     0.012273  d :     0.052456
      dxz     :     0.015489
      dyz     :     0.007864
      dx2y2   :     0.007123
      dxy     :     0.009708
 14 H s       :     0.842838  s :     0.842838
      pz      :     0.005421  p :     0.022690
      px      :     0.009100
      py      :     0.008170
 15 H s       :     0.839732  s :     0.839732
      pz      :     0.007843  p :     0.022708
      px      :     0.010093
      py      :     0.004773
 16 H s       :     0.847210  s :     0.847210
      pz      :     0.004805  p :     0.022703
      px      :     0.005703
      py      :     0.012195
 17 S s       :     5.958842  s :     5.958842
      pz      :     3.079207  p :    10.946677
      px      :     3.922480
      py      :     3.944990
      dz2     :     0.017522  d :     0.032551
      dxz     :     0.007915
      dyz     :     0.005699
      dx2y2   :     0.000490
      dxy     :     0.000925


                     *******************************
                     * LOEWDIN POPULATION ANALYSIS *
                     *******************************

------------------------
LOEWDIN FRAGMENT CHARGES
------------------------
 Fragment   0 :  -0.120374
 Fragment   1 :  -0.091643
 Fragment   2 :  -0.317077
 Fragment   3 :  -0.470906

----------------------------
LOEWDIN FRAGMENT BOND ORDERS
----------------------------
                  0          1          2          3    
      0      57.289116   6.673771   0.039837   0.370652
      1       6.673771  44.252047   0.016217   0.175374
      2       0.039837   0.016217  15.344790   1.664168
      3       0.370652   0.175374   1.664168  16.470906

----------------------
LOEWDIN ATOMIC CHARGES
----------------------
   0 C :    0.076024
   1 N :   -0.086323
   2 C :    0.007718
   3 C :   -0.103477
   4 C :    0.053696
   5 C :   -0.068011
   6 N :    0.201625
   7 O :   -0.224615
   8 O :   -0.199048
   9 F :   -0.092995
  10 H :    0.075491
  11 H :    0.046644
  12 H :    0.101255
  13 C :   -0.337722
  14 H :    0.006713
  15 H :    0.006549
  16 H :    0.007383
  17 S :   -0.470906

-------------------------------
LOEWDIN REDUCED ORBITAL CHARGES
-------------------------------
  0 C s       :     2.731064  s :     2.731064
      pz      :     0.850353  p :     2.843762
      px      :     1.094773
      py      :     0.898636
      dz2     :     0.121813  d :     0.349149
      dxz     :     0.103286
      dyz     :     0.051742
      dx2y2   :     0.036939
      dxy     :     0.035369
  1 N s       :     3.107775  s :     3.107775
      pz      :     1.302445  p :     3.913851
      px      :     1.436489
      py      :     1.174918
      dz2     :     0.018594  d :     0.064698
      dxz     :     0.018737
      dyz     :     0.009395
      dx2y2   :     0.010324
      dxy     :     0.007647
  2 C s       :     2.778850  s :     2.778850
      pz      :     1.065603  p :     3.019507
      px      :     1.101315
      py      :     0.852589
      dz2     :     0.063755  d :     0.193925
      dxz     :     0.074816
      dyz     :     0.029963
      dx2y2   :     0.014640
      dxy     :     0.010751
  3 C s       :     2.778937  s :     2.778937
      pz      :     1.120427  p :     3.192796
      px      :     1.122086
      py      :     0.950283
      dz2     :     0.034166  d :     0.131745
      dxz     :     0.048693
      dyz     :     0.009696
      dx2y2   :     0.023197
      dxy     :     0.015993
  4 C s       :     2.770704  s :     2.770704
      pz      :     1.072365  p :     3.039604
      px      :     1.109519
      py      :     0.857720
      dz2     :     0.043744  d :     0.135996
      dxz     :     0.041331
      dyz     :     0.022491
      dx2y2   :     0.016201
      dxy     :     0.012228
  5 C s       :     2.754445  s :     2.754445
      pz      :     1.088350  p :     3.131454
      px      :     0.959472
      py      :     1.083633
      dz2     :     0.039144  d :     0.182112
      dxz     :     0.074330
      dyz     :     0.020650
      dx2y2   :     0.030721
      dxy     :     0.017266
  6 N s       :     2.998787  s :     2.998787
      pz      :     1.220159  p :     3.531201
      px      :     1.231764
      py      :     1.079278
      dz2     :     0.079965  d :     0.268387
      dxz     :     0.092788
      dyz     :     0.045374
      dx2y2   :     0.025784
      dxy     :     0.024475
  7 O s       :     3.574259  s :     3.574259
      pz      :     1.275195  p :     4.618782
      px      :     1.850268
      py      :     1.493319
      dz2     :     0.020514  d :     0.031574
      dxz     :     0.004741
      dyz     :     0.006153
      dx2y2   :     0.000110
      dxy     :     0.000056
  8 O s       :     3.549197  s :     3.549197
      pz      :     1.682173  p :     4.614714
      px      :     1.479502
      py      :     1.453038
      dz2     :     0.003610  d :     0.035137
      dxz     :     0.015067
      dyz     :     0.002681
      dx2y2   :     0.008467
      dxy     :     0.005313
  9 F s       :     3.713777  s :     3.713777
      pz      :     1.541881  p :     5.371981
      px      :     1.937342
      py      :     1.892758
      dz2     :     0.004651  d :     0.007237
      dxz     :     0.001175
      dyz     :     0.001360
      dx2y2   :     0.000041
      dxy     :     0.000010
 10 H s       :     0.855281  s :     0.855281
      pz      :     0.017594  p :     0.069228
      px      :     0.040521
      py      :     0.011114
 11 H s       :     0.860987  s :     0.860987
      pz      :     0.060088  p :     0.092369
      px      :     0.016784
      py      :     0.015496
 12 H s       :     0.827670  s :     0.827670
      pz      :     0.021553  p :     0.071075
      px      :     0.038380
      py      :     0.011142
 13 C s       :     2.851583  s :     2.851583
      pz      :     1.146298  p :     3.379487
      px      :     1.116728
      py      :     1.116460
      dz2     :     0.027363  d :     0.106652
      dxz     :     0.031569
      dyz     :     0.015832
      dx2y2   :     0.013347
      dxy     :     0.018541
 14 H s       :     0.921370  s :     0.921370
      pz      :     0.017653  p :     0.071917
      px      :     0.028908
      py      :     0.025357
 15 H s       :     0.921641  s :     0.921641
      pz      :     0.026031  p :     0.071809
      px      :     0.031813
      py      :     0.013965
 16 H s       :     0.920473  s :     0.920473
      pz      :     0.015516  p :     0.072145
      px      :     0.017283
      py      :     0.039345
 17 S s       :     5.540558  s :     5.540558
      pz      :     3.203354  p :    10.891276
      px      :     3.824773
      py      :     3.863149
      dz2     :     0.021337  d :     0.039071
      dxz     :     0.009439
      dyz     :     0.006654
      dx2y2   :     0.000555
      dxy     :     0.001087


                      *****************************
                      * MAYER POPULATION ANALYSIS *
                      *****************************

  NA   - Mulliken gross atomic population
  ZA   - Total nuclear charge
  QA   - Mulliken gross atomic charge
  VA   - Mayer's total valence
  BVA  - Mayer's bonded valence
  FA   - Mayer's free valence

  ATOM       NA         ZA         QA         VA         BVA        FA
  0 C      6.0227     6.0000    -0.0227     4.2225     4.2225     0.0000
  1 N      7.1935     7.0000    -0.1935     2.7652     2.7652    -0.0000
  2 C      6.1538     6.0000    -0.1538     3.7680     3.7680    -0.0000
  3 C      6.2473     6.0000    -0.2473     4.3644     4.3644    -0.0000
  4 C      5.4781     6.0000     0.5219     4.0030     4.0030     0.0000
  5 C      6.2105     6.0000    -0.2105     3.2813     3.2813    -0.0000
  6 N      7.0149     7.0000    -0.0149     4.0288     4.0288     0.0000
  7 O      8.1673     8.0000    -0.1673     2.1054     2.1054     0.0000
  8 O      8.1166     8.0000    -0.1166     2.1888     2.1888    -0.0000
  9 F      9.1228     9.0000    -0.1228     0.9205     0.9205     0.0000
 10 H      0.7574     1.0000     0.2426     0.9311     0.9311     0.0000
 11 H      0.8493     1.0000     0.1507     1.0683     1.0683     0.0000
 12 H      0.6689     1.0000     0.3311     0.8168     0.8168     0.0000
 13 C      6.4609     6.0000    -0.4609     3.6457     3.6457    -0.0000
 14 H      0.8655     1.0000     0.1345     0.9289     0.9289    -0.0000
 15 H      0.8624     1.0000     0.1376     0.9207     0.9207    -0.0000
 16 H      0.8699     1.0000     0.1301     0.9464     0.9464     0.0000
 17 S     16.9381    16.0000    -0.9381     0.6239     0.6239    -0.0000

  Mayer bond orders larger than 0.100000
B(  0-C ,  1-N ) :   1.2962 B(  0-C ,  2-C ) :   0.1574 B(  0-C ,  3-C ) :   0.1743 
B(  0-C ,  4-C ) :   0.1803 B(  0-C ,  5-C ) :   1.2479 B(  0-C ,  6-N ) :  -0.1737 
B(  0-C ,  7-O ) :   0.1131 B(  0-C ,  8-O ) :  -0.1164 B(  0-C ,  9-F ) :   1.3626 
B(  1-N ,  2-C ) :   1.1919 B(  1-N ,  3-C ) :   0.1506 B(  1-N ,  5-C ) :   0.1864 
B(  2-C ,  3-C ) :   1.4847 B(  2-C , 10-H ) :   0.9263 B(  3-C ,  4-C ) :   1.4938 
B(  3-C ,  5-C ) :   0.2451 B(  3-C ,  8-O ) :   0.2146 B(  3-C , 11-H ) :   0.8734 
B(  3-C , 17-S ) :  -0.3296 B(  4-C ,  5-C ) :   1.3875 B(  4-C ,  8-O ) :   0.2085 
B(  4-C ,  9-F ) :  -0.1430 B(  4-C , 12-H ) :   0.7015 B(  4-C , 17-S ) :   0.1573 
B(  5-C ,  6-N ) :   0.6606 B(  5-C ,  7-O ) :  -0.1327 B(  5-C ,  8-O ) :  -0.2026 
B(  5-C ,  9-F ) :  -0.3526 B(  5-C , 12-H ) :   0.1425 B(  6-N ,  7-O ) :   1.8297 
B(  6-N ,  8-O ) :   1.8433 B(  7-O ,  8-O ) :   0.2394 B( 11-H , 17-S ) :   0.1780 
B( 13-C , 14-H ) :   0.9806 B( 13-C , 15-H ) :   0.9849 B( 13-C , 16-H ) :   0.9979 
B( 13-C , 17-S ) :   0.7038 

-------
TIMINGS
-------

Total SCF time: 0 days 0 hours 0 min 21 sec 

Total time                  ....      21.986 sec
Sum of individual times     ....      21.326 sec  ( 97.0%)

Fock matrix formation       ....      19.022 sec  ( 86.5%)
  Split-RI-J                ....       1.126 sec  (  5.9% of F)
  Chain of spheres X        ....      13.322 sec  ( 70.0% of F)
  XC integration            ....       2.046 sec  ( 10.8% of F)
    Basis function eval.    ....       0.224 sec  ( 11.0% of XC)
    Density eval.           ....       0.234 sec  ( 11.4% of XC)
    XC-Functional eval.     ....       0.198 sec  (  9.7% of XC)
    XC-Potential eval.      ....       0.180 sec  (  8.8% of XC)
Diagonalization             ....       0.036 sec  (  0.2%)
Density matrix formation    ....       0.013 sec  (  0.1%)
Population analysis         ....       0.227 sec  (  1.0%)
Initial guess               ....       0.039 sec  (  0.2%)
Orbital Transformation      ....       0.000 sec  (  0.0%)
Orbital Orthonormalization  ....       0.020 sec  (  0.1%)
DIIS solution               ....       0.014 sec  (  0.1%)
SOSCF solution              ....       0.155 sec  (  0.7%)
Grid generation             ....       1.821 sec  (  8.3%)

Maximum memory used throughout the entire SCF-calculation: 69.3 MB

-------------------------   --------------------
FINAL SINGLE POINT ENERGY      -990.259595494540
-------------------------   --------------------

                                *** OPTIMIZATION RUN DONE ***

                            ***************************************
                            *     ORCA property calculations      *
                            ***************************************

                                    ---------------------
                                    Active property flags
                                    ---------------------
   (+) Dipole Moment


------------------------------------------------------------------------------
                       ORCA ELECTRIC PROPERTIES CALCULATION
------------------------------------------------------------------------------

Dipole Moment Calculation                       ... on
Quadrupole Moment Calculation                   ... off
Polarizability Calculation                      ... off
GBWName                                         ... structure_opt.gbw
Electron density                                ... structure_opt.scfp
The origin for moment calculation is the CENTER OF MASS  = (-0.361995,  0.861377  6.784324)

-------------
DIPOLE MOMENT
-------------
                                X             Y             Z
Electronic contribution:     -9.65033      -4.08747     -22.66550
Nuclear contribution   :      7.48859       2.45072      20.64499
                        -----------------------------------------
Total Dipole Moment    :     -2.16174      -1.63675      -2.02051
                        -----------------------------------------
Magnitude (a.u.)       :      3.38150
Magnitude (Debye)      :      8.59510



--------------------
Rotational spectrum 
--------------------
 
Rotational constants in cm-1:     0.058443     0.011004     0.009501 
Rotational constants in MHz :  1752.082749   329.895065   284.827007 

 Dipole components along the rotational axes: 
x,y,z [a.u.] :    -3.072762    -0.435758    -1.342691 
x,y,z [Debye]:    -7.810341    -1.107610    -3.412849 

 

Timings for individual modules:

Sum of individual times         ...      965.174 sec (=  16.086 min)
GTO integral calculation        ...       54.699 sec (=   0.912 min)   5.7 %
SCF iterations                  ...      752.585 sec (=  12.543 min)  78.0 %
SCF Gradient evaluation         ...      156.445 sec (=   2.607 min)  16.2 %
Geometry relaxation             ...        1.446 sec (=   0.024 min)   0.1 %
                             ****ORCA TERMINATED NORMALLY****
TOTAL RUN TIME: 0 days 0 hours 16 minutes 56 seconds 815 msec
