
                                 *****************
                                 * O   R   C   A *
                                 *****************

                                            #,                                       
                                            ###                                      
                                            ####                                     
                                            #####                                    
                                            ######                                   
                                           ########,                                 
                                     ,,################,,,,,                         
                               ,,#################################,,                 
                          ,,##########################################,,             
                       ,#########################################, ''#####,          
                    ,#############################################,,   '####,        
                  ,##################################################,,,,####,       
                ,###########''''           ''''###############################       
              ,#####''   ,,,,##########,,,,          '''####'''          '####       
            ,##' ,,,,###########################,,,                        '##       
           ' ,,###''''                  '''############,,,                           
         ,,##''                                '''############,,,,        ,,,,,,###''
      ,#''                                            '''#######################'''  
     '                                                          ''''####''''         
             ,#######,   #######,   ,#######,      ##                                
            ,#'     '#,  ##    ##  ,#'     '#,    #''#        ######   ,####,        
            ##       ##  ##   ,#'  ##            #'  '#       #        #'  '#        
            ##       ##  #######   ##           ,######,      #####,   #    #        
            '#,     ,#'  ##    ##  '#,     ,#' ,#      #,         ##   #,  ,#        
             '#######'   ##     ##  '#######'  #'      '#     #####' # '####'        



                  #######################################################
                  #                        -***-                        #
                  #          Department of theory and spectroscopy      #
                  #    Directorship and core code : Frank Neese         #
                  #        Max Planck Institute fuer Kohlenforschung    #
                  #                Kaiser Wilhelm Platz 1               #
                  #                 D-45470 Muelheim/Ruhr               #
                  #                      Germany                        #
                  #                                                     #
                  #                  All rights reserved                #
                  #                        -***-                        #
                  #######################################################


                         Program Version 5.0.4 -  RELEASE  -


 With contributions from (in alphabetic order):
   Daniel Aravena         : Magnetic Suceptibility
   Michael Atanasov       : Ab Initio Ligand Field Theory (pilot matlab implementation)
   Alexander A. Auer      : GIAO ZORA, VPT2 properties, NMR spectrum
   Ute Becker             : Parallelization
   Giovanni Bistoni       : ED, misc. LED, open-shell LED, HFLD
   Martin Brehm           : Molecular dynamics
   Dmytro Bykov           : SCF Hessian
   Vijay G. Chilkuri      : MRCI spin determinant printing, contributions to CSF-ICE
   Dipayan Datta          : RHF DLPNO-CCSD density
   Achintya Kumar Dutta   : EOM-CC, STEOM-CC
   Dmitry Ganyushin       : Spin-Orbit,Spin-Spin,Magnetic field MRCI
   Miquel Garcia          : C-PCM and meta-GGA Hessian, CC/C-PCM, Gaussian charge scheme
   Yang Guo               : DLPNO-NEVPT2, F12-NEVPT2, CIM, IAO-localization
   Andreas Hansen         : Spin unrestricted coupled pair/coupled cluster methods
   Benjamin Helmich-Paris : MC-RPA, TRAH-SCF, COSX integrals
   Lee Huntington         : MR-EOM, pCC
   Robert Izsak           : Overlap fitted RIJCOSX, COSX-SCS-MP3, EOM
   Marcus Kettner         : VPT2
   Christian Kollmar      : KDIIS, OOCD, Brueckner-CCSD(T), CCSD density, CASPT2, CASPT2-K
   Simone Kossmann        : Meta GGA functionals, TD-DFT gradient, OOMP2, MP2 Hessian
   Martin Krupicka        : Initial AUTO-CI
   Lucas Lang             : DCDCAS
   Marvin Lechner         : AUTO-CI (C++ implementation), FIC-MRCC
   Dagmar Lenk            : GEPOL surface, SMD
   Dimitrios Liakos       : Extrapolation schemes; Compound Job, initial MDCI parallelization
   Dimitrios Manganas     : Further ROCIS development; embedding schemes
   Dimitrios Pantazis     : SARC Basis sets
   Anastasios Papadopoulos: AUTO-CI, single reference methods and gradients
   Taras Petrenko         : DFT Hessian,TD-DFT gradient, ASA, ECA, R-Raman, ABS, FL, XAS/XES, NRVS
   Peter Pinski           : DLPNO-MP2, DLPNO-MP2 Gradient
   Christoph Reimann      : Effective Core Potentials
   Marius Retegan         : Local ZFS, SOC
   Christoph Riplinger    : Optimizer, TS searches, QM/MM, DLPNO-CCSD(T), (RO)-DLPNO pert. Triples
   Tobias Risthaus        : Range-separated hybrids, TD-DFT gradient, RPA, STAB
   Michael Roemelt        : Original ROCIS implementation
   Masaaki Saitow         : Open-shell DLPNO-CCSD energy and density
   Barbara Sandhoefer     : DKH picture change effects
   Avijit Sen             : IP-ROCIS
   Kantharuban Sivalingam : CASSCF convergence, NEVPT2, FIC-MRCI
   Bernardo de Souza      : ESD, SOC TD-DFT
   Georgi Stoychev        : AutoAux, RI-MP2 NMR, DLPNO-MP2 response
   Willem Van den Heuvel  : Paramagnetic NMR
   Boris Wezisla          : Elementary symmetry handling
   Frank Wennmohs         : Technical directorship


 We gratefully acknowledge several colleagues who have allowed us to
 interface, adapt or use parts of their codes:
   Stefan Grimme, W. Hujo, H. Kruse, P. Pracht,  : VdW corrections, initial TS optimization,
                  C. Bannwarth, S. Ehlert          DFT functionals, gCP, sTDA/sTD-DF
   Ed Valeev, F. Pavosevic, A. Kumar             : LibInt (2-el integral package), F12 methods
   Garnet Chan, S. Sharma, J. Yang, R. Olivares  : DMRG
   Ulf Ekstrom                                   : XCFun DFT Library
   Mihaly Kallay                                 : mrcc  (arbitrary order and MRCC methods)
   Jiri Pittner, Ondrej Demel                    : Mk-CCSD
   Frank Weinhold                                : gennbo (NPA and NBO analysis)
   Christopher J. Cramer and Donald G. Truhlar   : smd solvation model
   Lars Goerigk                                  : TD-DFT with DH, B97 family of functionals
   V. Asgeirsson, H. Jonsson                     : NEB implementation
   FAccTs GmbH                                   : IRC, NEB, NEB-TS, DLPNO-Multilevel, CI-OPT
                                                   MM, QMMM, 2- and 3-layer-ONIOM, Crystal-QMMM,
                                                   LR-CPCM, SF, NACMEs, symmetry and pop. for TD-DFT,
                                                   nearIR, NL-DFT gradient (VV10), updates on ESD,
                                                   ML-optimized integration grids
   S Lehtola, MJT Oliveira, MAL Marques          : LibXC Library
   Liviu Ungur et al                             : ANISO software


 Your calculation uses the libint2 library for the computation of 2-el integrals
 For citations please refer to: http://libint.valeyev.net

 Your ORCA version has been built with support for libXC version: 5.1.0
 For citations please refer to: https://tddft.org/programs/libxc/

 This ORCA versions uses:
   CBLAS   interface :  Fast vector & matrix operations
   LAPACKE interface :  Fast linear algebra routines
   SCALAPACK package :  Parallel linear algebra routines
   Shared memory     :  Shared parallel matrices
   BLAS/LAPACK       :  OpenBLAS 0.3.15  USE64BITINT DYNAMIC_ARCH NO_AFFINITY SkylakeX SINGLE_THREADED
        Core in use  :  SkylakeX
   Copyright (c) 2011-2014, The OpenBLAS Project




***************************************
The coordinates will be read from file: reactants.xyz
***************************************


Your calculation utilizes the SMD solvation module
Please cite in your paper:
A.V. Marenich, C.J. Cramer, D.G. Truhlar J. Phys. Chem. B, 113, (2009), 6378 

XCFun DFT library Copyright 2009-2010 Ulf Ekstrom and contributors.
See http://admol.org/xcfun for more information.
This is free software; see the source code for copying conditions.
There is ABSOLUTELY NO WARRANTY; not even for MERCHANTABILITY or FITNESS FOR A PARTICULAR PURPOSE.
For details see the documentation.
Scientific users of this library should cite U. Ekstrom, L. Visscher, R. Bast, A. J. Thorvaldsen and K. Ruud;
J.Chem.Theor.Comp. 2010, DOI: 10.1021/ct100117s
XCFun Version 0.99 

================================================================================

----- Orbital basis set information -----
Your calculation utilizes the basis: 6-311++G**
   H, Li - Ne  : R. Krishnan, J. S. Binkley, R. Seeger and J. A. Pople, J. Chem. Phys. 72, 650 (1980).
   Na - Ar     : A. D. McLean and G. S. Chandler J. Chem. Phys. 72, 5639, (1980).
   K  - Ca     : J.-P. Blaudeau, M. P. McGrath, L. A. Curtiss and L. Radom, J. Chem. Phys. 107, 5016 (1997).
   Ga - Kr     : L. A. Curtiss, M. P. McGrath, J.-P. Blandeau, N. E. Davis, R. C. Binning and L. Radom, J. Chem. Phys. 103, 6104 (1995).
   Pol./Diff.
   H, Li - Cl  : T. Clark, J. Chandrasekhar and P. v. R. Schleyer, J. Comp. Chem. 4, 294 (1983).
   H - Ne      : M. J. Frisch, J. A. Pople and J. S. Binkley, J. Chem. Phys. 80, 3265 (1984).

----- AuxJ basis set information -----
Your calculation utilizes the auxiliary basis: def2/J
   F. Weigend, Phys. Chem. Chem. Phys. 8, 1057 (2006).

================================================================================
                                        WARNINGS
                       Please study these warnings very carefully!
================================================================================


WARNING: Geometry Optimization
  ===> : Switching off AutoStart
         For restart on a previous wavefunction, please use MOREAD

INFO   : the flag for use of the SHARK integral package has been found!

================================================================================
                                       INPUT FILE
================================================================================
NAME = structure_opt.inp
|  1> !wb97x 6-311++G** OPT CPCM(WATER)
|  2> %maxcore  3500
|  3> %pal
|  4> nprocs 24
|  5> end
|  6> %cpcm
|  7> smd true
|  8> SMDsolvent "water"
|  9> end
| 10> %geom
| 11> ConstrainFragments {1} end
| 12> ConstrainFragments {4} end
| 13> ConnectFragments
| 14> { 1 2 C 5 7 }
| 15> { 1 2 C 0 9 }
| 16> { 2 3 C 13 5 }
| 17> { 3 4 C 13 17 }
| 18> end
| 19> end
| 20> * XYZfile -1 1 reactants.xyz
| 21> %geom
| 22> Fragments
| 23> 1 {0:5} end
| 24> 2 {6:12} end
| 25> 3 {13:16} end
| 26> 4 {17} end
| 27> end
| 28> end
| 29> 
| 30>                          ****END OF INPUT****
================================================================================

                       *****************************
                       * Geometry Optimization Run *
                       *****************************

Geometry optimization settings:
Update method            Update   .... BFGS
Choice of coordinates    CoordSys .... Z-matrix Internals
Initial Hessian          InHess   .... Almoef's Model

Convergence Tolerances:
Energy Change            TolE     ....  5.0000e-06 Eh
Max. Gradient            TolMAXG  ....  3.0000e-04 Eh/bohr
RMS Gradient             TolRMSG  ....  1.0000e-04 Eh/bohr
Max. Displacement        TolMAXD  ....  4.0000e-03 bohr
RMS Displacement         TolRMSD  ....  2.0000e-03 bohr
Strict Convergence                ....  False
------------------------------------------------------------------------------
                        ORCA OPTIMIZATION COORDINATE SETUP
------------------------------------------------------------------------------

The optimization will be done in new redundant internal coordinates
Making redundant internal coordinates   ...  (new redundants) done
Evaluating the initial hessian          ...  (Almloef) done
Evaluating the coordinates              ...  done
Calculating the B-matrix                .... done
Calculating the G-matrix                .... done
Diagonalizing the G-matrix              .... done
Imposing constraints:
 Iter   0:  RMS(Cart)=    0.0000000000 RMS(Int)=    0.0000000000
CONVERGED
Small eigenvalue found = 1.069e-02
Small eigenvalue found = 2.818e-02
The first mode is                       ....   68
The number of degrees of freedom        ....   48
Storing new coordinates                 .... done

    -----------------------------------------------------------------
                    Redundant Internal Coordinates


    -----------------------------------------------------------------
         Definition                    Initial Value    Approx d2E/dq
    -----------------------------------------------------------------
      1. B(N   1,C   0)                  1.3611         0.622347   
      2. B(C   2,N   1)                  1.3582         0.628875   
      3. B(C   3,C   2)                  1.3949         0.613658   
      4. B(C   4,C   3)                  1.3934         0.616971   
      5. B(C   5,C   0)                  1.4122         0.575774   
      6. B(C   5,C   4)                  1.4061         0.588917   
      7. B(O   7,C   5)                  2.3435         0.016853 C 
      8. B(O   7,N   6)                  1.2480         0.844503   
      9. B(O   8,N   6)                  1.3769         0.525866   
     10. B(F   9,C   0)                  1.3500         0.602260 C 
     11. B(F   9,N   6)                  2.8678         0.002044   
     12. B(F   9,O   7)                  2.5821         0.005837   
     13. B(H  11,H  10)                  2.4818         0.000415   
     14. B(H  12,O   8)                  2.5152         0.001717   
     15. B(H  12,H  11)                  2.4663         0.000439   
     16. B(H  12,N   6)                  2.7029         0.000861   
     17. B(C  13,F   9)                  8.9598         0.000000 C 
     18. B(H  14,C  13)                  1.0944         0.354313   
     19. B(H  15,C  13)                  1.0937         0.355278   
     20. B(H  16,C  13)                  1.0928         0.356454   
     21. B(S  17,C  13)                  1.8031         0.369292 C 
     22. A(N   1,C   0,F   9)          118.6704         0.424592 C 
     23. A(C   5,C   0,F   9)          121.1725         0.421471 C 
     24. A(N   1,C   0,C   5)          120.1571         0.425830   
     25. A(C   0,N   1,C   2)          121.9524         0.429796   
     26. A(N   1,C   2,C   3)          120.0262         0.431531   
     27. A(C   2,C   3,C   4)          119.3498         0.432882   
     28. A(C   3,C   4,C   5)          120.4718         0.429694   
     29. A(C   0,C   5,C   4)          118.0425         0.424407   
     30. A(C   0,C   5,O   7)           94.5313         0.237820 C 
     31. A(C   4,C   5,O   7)          147.4261         0.238582 C 
     32. A(F   9,N   6,H  12)          110.0144         0.106848   
     33. A(O   7,N   6,F   9)           64.2090         0.186619   
     34. A(O   7,N   6,H  12)          174.2234         0.159181   
     35. A(O   8,N   6,H  12)           67.2752         0.152046   
     36. A(O   7,N   6,O   8)          118.5014         0.433822   
     37. A(N   6,O   7,F   9)           89.9947         0.212791   
     38. A(C   5,O   7,N   6)           31.7456         0.248611 C 
     39. A(C   5,O   7,F   9)           58.2491         0.140475 C 
     40. A(N   6,O   8,H  12)           82.3972         0.162696   
     41. A(C   0,F   9,C  13)          110.8569         0.089592   
     42. A(N   6,F   9,O   7)           25.7962         0.120482   
     43. A(O   7,F   9,C  13)           83.4541         0.089205 C 
     44. A(C   0,F   9,O   7)           86.0471         0.203997 C 
     45. A(C   0,F   9,N   6)           60.2509         0.179684 C 
     46. A(N   6,F   9,C  13)           93.2184         0.089162 C 
     47. A(H  10,H  11,H  12)          119.7063         0.095112   
     48. A(N   6,H  12,O   8)           30.3275         0.103999   
     49. A(N   6,H  12,H  11)          126.7169         0.097913   
     50. A(O   8,H  12,H  11)          157.0445         0.099419   
     51. A(H  14,C  13,H  16)          108.9549         0.289638   
     52. A(H  15,C  13,H  16)          109.0655         0.289762   
     53. A(F   9,C  13,H  14)          112.5450         0.089460 C 
     54. A(H  16,C  13,S  17)          109.9043         0.339605 C 
     55. A(F   9,C  13,H  15)          109.5587         0.089461 C 
     56. A(F   9,C  13,H  16)          107.6180         0.089461 C 
     57. A(H  14,C  13,S  17)          109.9088         0.339263 C 
     58. A(H  15,C  13,S  17)          109.9457         0.339417 C 
     59. A(H  14,C  13,H  15)          109.0370         0.289488   
     60. D(C   2,N   1,C   0,C   5)     -0.1041         0.028432   
     61. D(C   2,N   1,C   0,F   9)    179.9112         0.028432 C 
     62. D(C   3,C   2,N   1,C   0)      0.1066         0.025783   
     63. D(C   4,C   3,C   2,N   1)     -0.0956         0.020965   
     64. D(C   5,C   4,C   3,C   2)      0.0854         0.021202   
     65. D(C   4,C   5,C   0,N   1)      0.0896         0.022761   
     66. D(C   4,C   5,C   0,F   9)   -179.9260         0.022761 C 
     67. D(O   7,C   5,C   0,N   1)    179.9933         0.022761 C 
     68. D(O   7,C   5,C   0,F   9)     -0.0223         0.022761 C 
     69. D(C   0,C   5,C   4,C   3)     -0.0818         0.021656   
     70. D(O   7,C   5,C   4,C   3)   -179.9036         0.021656 C 
     71. D(N   6,O   7,C   5,C   0)   -179.9521         0.001517 C 
     72. D(N   6,O   7,C   5,C   4)     -0.1099         0.001517 C 
     73. D(F   9,O   7,C   5,C   0)      0.0117         0.001517 C 
     74. D(F   9,O   7,N   6,O   8)    179.9932         0.079747   
     75. D(C   5,O   7,N   6,F   9)      0.0308         0.079747 C 
     76. D(F   9,O   7,N   6,H  12)      0.1568         0.079747   
     77. D(C   5,O   7,N   6,O   8)   -179.9761         0.079747 C 
     78. D(C   5,O   7,N   6,H  12)      0.1876         0.079747 C 
     79. D(F   9,O   7,C   5,C   4)    179.8539         0.001517 C 
     80. D(H  12,O   8,N   6,O   7)   -179.9821         0.025649   
     81. D(C  13,F   9,N   6,O   7)    -67.7458         0.001500 C 
     82. D(N   6,F   9,C   0,C   5)      0.0236         0.035386 C 
     83. D(O   7,F   9,C   0,N   1)   -179.9952         0.035386 C 
     84. D(O   7,F   9,C   0,C   5)      0.0202         0.035386 C 
     85. D(C  13,F   9,C   0,N   1)     98.5513         0.035386   
     86. D(C  13,F   9,C   0,C   5)    -81.4333         0.035386   
     87. D(O   7,F   9,N   6,H  12)   -179.9832         0.001500   
     88. D(C   0,F   9,N   6,O   7)   -179.9922         0.001500 C 
     89. D(N   6,F   9,C   0,N   1)   -179.9918         0.035386 C 
     90. D(C   0,F   9,N   6,H  12)      0.0246         0.001500 C 
     91. D(C  13,F   9,N   6,H  12)    112.2710         0.001500 C 
     92. D(C   0,F   9,O   8,H  12)      0.0232         0.001500 C 
     93. D(C   0,F   9,O   7,N   6)      0.0068         0.001503 C 
     94. D(C   0,F   9,O   7,C   5)     -0.0123         0.001503 C 
     95. D(C  13,F   9,O   7,N   6)    111.5470         0.001503 C 
     96. D(C  13,F   9,O   7,C   5)    111.5280         0.001503   
     97. D(N   6,F   9,O   7,C   5)     -0.0190         0.001503 C 
     98. D(O   7,F   9,O   8,H  12)   -179.9897         0.001500   
     99. D(C  13,F   9,O   8,H  12)    112.2203         0.001500 C 
    100. D(O   8,H  12,N   6,O   7)    179.8441         0.001501   
    101. D(N   6,H  12,H  11,H  10)      0.0466         0.001502   
    102. D(H  11,H  12,N   6,O   7)     -0.1748         0.001501   
    103. D(H  11,H  12,N   6,O   8)    179.9811         0.001501   
    104. D(H  11,H  12,N   6,F   9)     -0.0245         0.001501   
    105. D(O   8,H  12,N   6,F   9)    179.9943         0.001501   
    106. D(H  11,H  12,O   8,N   6)     -0.0388         0.001502   
    107. D(O   8,H  12,H  11,H  10)      0.0710         0.001502   
    108. D(H  14,C  13,F   9,N   6)    143.9767         0.001500 C 
    109. D(H  14,C  13,F   9,O   7)    120.0605         0.001500 C 
    110. D(H  14,C  13,F   9,C   0)   -156.7146         0.001500   
    111. D(H  15,C  13,F   9,N   6)     22.4914         0.001500 C 
    112. D(H  15,C  13,F   9,O   7)     -1.4248         0.001500 C 
    113. D(H  15,C  13,F   9,C   0)     81.8001         0.001500   
    114. D(H  16,C  13,F   9,N   6)    -95.9677         0.001500 C 
    115. D(H  16,C  13,F   9,O   7)   -119.8839         0.001500 C 
    116. D(H  16,C  13,F   9,C   0)    -36.6590         0.001500   
    -----------------------------------------------------------------

Number of atoms                         .... 18
Number of degrees of freedom            .... 116

         *************************************************************
         *                GEOMETRY OPTIMIZATION CYCLE   1            *
         *************************************************************
---------------------------------
CARTESIAN COORDINATES (ANGSTROEM)
---------------------------------
  C      0.000000    0.000000    1.820000
  N      1.178000   -0.196000    2.473000
  C      1.255000   -0.207000    3.829000
  C      0.105000   -0.016000    4.595000
  C     -1.116000    0.187000    3.955000
  C     -1.192000    0.198000    2.551000
  N     -2.456000    0.409000    1.893000
  O     -2.541000    0.423000    0.648000
  O     -3.602000    0.600000    2.632000
  F      0.000000    0.000000    0.470000
  H      2.209000   -0.366000    4.313000
  H      0.163000   -0.026000    5.676000
  H     -2.005000    0.335000    4.557000
  C     -2.587000   -7.963000   -2.720000
  H     -2.226000   -8.145000   -3.737000
  H     -3.679000   -8.023000   -2.713000
  H     -2.183000   -8.732000   -2.057000
  S     -2.057000   -6.332000   -2.163000

----------------------------
CARTESIAN COORDINATES (A.U.)
----------------------------
  NO LB      ZA    FRAG     MASS         X           Y           Z
   0 C     6.0000    1    12.011    0.000000    0.000000    3.439302
   1 N     7.0000    1    14.007    2.226097   -0.370386    4.673293
   2 C     6.0000    1    12.011    2.371606   -0.391173    7.235761
   3 C     6.0000    1    12.011    0.198421   -0.030236    8.683292
   4 C     6.0000    1    12.011   -2.108934    0.353379    7.473867
   5 C     6.0000    1    12.011   -2.252554    0.374166    4.820691
   6 N     7.0000    2    14.007   -4.641167    0.772898    3.577252
   7 O     8.0000    2    15.999   -4.801794    0.799354    1.224543
   8 O     8.0000    2    15.999   -6.806794    1.133836    4.973759
   9 F     9.0000    2    18.998    0.000000    0.000000    0.888171
  10 H     1.0000    2     1.008    4.174405   -0.691640    8.150389
  11 H     1.0000    2     1.008    0.308025   -0.049133   10.726086
  12 H     1.0000    2     1.008   -3.788901    0.633058    8.611482
  13 C     6.0000    3    12.011   -4.888722  -15.047889   -5.140055
  14 H     1.0000    3     1.008   -4.206530  -15.391819   -7.061907
  15 H     1.0000    3     1.008   -6.952302  -15.161273   -5.126827
  16 H     1.0000    3     1.008   -4.125272  -16.501089   -3.887167
  17 S    16.0000    4    32.060   -3.887167  -11.965746   -4.087478

----------------------------------------------
CARTESIAN COORDINATES OF FRAGMENTS (ANGSTROEM)
----------------------------------------------

 FRAGMENT 1 
  C     0.000000    0.000000    1.820000
  N     1.178000   -0.196000    2.473000
  C     1.255000   -0.207000    3.829000
  C     0.105000   -0.016000    4.595000
  C    -1.116000    0.187000    3.955000
  C    -1.192000    0.198000    2.551000

 FRAGMENT 2 
  N    -2.456000    0.409000    1.893000
  O    -2.541000    0.423000    0.648000
  O    -3.602000    0.600000    2.632000
  F     0.000000    0.000000    0.470000
  H     2.209000   -0.366000    4.313000
  H     0.163000   -0.026000    5.676000
  H    -2.005000    0.335000    4.557000

 FRAGMENT 3 
  C    -2.587000   -7.963000   -2.720000
  H    -2.226000   -8.145000   -3.737000
  H    -3.679000   -8.023000   -2.713000
  H    -2.183000   -8.732000   -2.057000

 FRAGMENT 4 
  S    -2.057000   -6.332000   -2.163000

--------------------------------
INTERNAL COORDINATES (ANGSTROEM)
--------------------------------
 C      0   0   0     0.000000000000     0.00000000     0.00000000
 N      1   0   0     1.361069065110     0.00000000     0.00000000
 C      2   1   0     1.358228993948   121.95243626     0.00000000
 C      3   2   1     1.394896770374   120.02620694     0.10655554
 C      4   3   2     1.393431017309   119.34983770   359.90435571
 C      5   4   3     1.406098502951   120.47178172     0.08537773
 N      6   5   4     1.440548853736   120.30882193   180.03842131
 O      7   6   5     1.247976762604   121.13704526   179.93147861
 O      7   6   5     1.376923382037   120.36156660   359.90709941
 F      1   2   3     1.350000000000   118.67037638   179.91115691
 H      3   2   1     1.081504969938   119.86701156   179.98746005
 H      4   3   2     1.082601034546   120.19197482   179.89186186
 H      5   4   3     1.083803026384   118.91636700   180.02085854
 C     10   1   2     8.959801225474   110.85687111    98.55126928
 H     14  10   1     1.094410343518   112.54497729   203.28537023
 H     14  10   1     1.093669511324   109.55869016    81.80008524
 H     14  10   1     1.092769875134   107.61795906   323.34098028
 S     14  10   1     1.803138929756     2.86357471   180.07543497

---------------------------
INTERNAL COORDINATES (A.U.)
---------------------------
 C      0   0   0     0.000000000000     0.00000000     0.00000000
 N      1   0   0     2.572047782411     0.00000000     0.00000000
 C      2   1   0     2.566680825712   121.95243626     0.00000000
 C      3   2   1     2.635972881098   120.02620694     0.10655554
 C      4   3   2     2.633203009226   119.34983770   359.90435571
 C      5   4   3     2.657141087893   120.47178172     0.08537773
 N      6   5   4     2.722242816095   120.30882193   180.03842131
 O      7   6   5     2.358334302820   121.13704526   179.93147861
 O      7   6   5     2.602008099442   120.36156660   359.90709941
 F      1   2   3     2.551130280794   118.67037638   179.91115691
 H      3   2   1     2.043748205657   119.86701156   179.98746005
 H      4   3   2     2.045819467592   120.19197482   179.89186186
 H      5   4   3     2.048090902982   118.91636700   180.02085854
 C     10   1   2    16.931570530517   110.85687111    98.55126928
 H     14  10   1     2.068135827380   112.54497729   203.28537023
 H     14  10   1     2.066735857422   109.55869016    81.80008524
 H     14  10   1     2.065035791402   107.61795906   323.34098028
 S     14  10   1     3.407438758650     2.86357471   180.07543497

---------------------
BASIS SET INFORMATION
---------------------
There are 6 groups of distinct atoms

 Group   1 Type C   : 12s6p1d contracted to 5s4p1d pattern {63111/3111/1}
 Group   2 Type N   : 12s6p1d contracted to 5s4p1d pattern {63111/3111/1}
 Group   3 Type O   : 12s6p1d contracted to 5s4p1d pattern {63111/3111/1}
 Group   4 Type F   : 12s6p1d contracted to 5s4p1d pattern {63111/3111/1}
 Group   5 Type H   : 6s1p contracted to 4s1p pattern {3111/1}
 Group   6 Type S   : 14s10p1d contracted to 7s6p1d pattern {6311111/421111/1}

Atom   0C    basis set group =>   1
Atom   1N    basis set group =>   2
Atom   2C    basis set group =>   1
Atom   3C    basis set group =>   1
Atom   4C    basis set group =>   1
Atom   5C    basis set group =>   1
Atom   6N    basis set group =>   2
Atom   7O    basis set group =>   3
Atom   8O    basis set group =>   3
Atom   9F    basis set group =>   4
Atom  10H    basis set group =>   5
Atom  11H    basis set group =>   5
Atom  12H    basis set group =>   5
Atom  13C    basis set group =>   1
Atom  14H    basis set group =>   5
Atom  15H    basis set group =>   5
Atom  16H    basis set group =>   5
Atom  17S    basis set group =>   6
---------------------------------
AUXILIARY/J BASIS SET INFORMATION
---------------------------------
There are 6 groups of distinct atoms

 Group   1 Type C   : 12s5p4d2f1g contracted to 6s4p3d1f1g pattern {711111/2111/211/2/1}
 Group   2 Type N   : 12s5p4d2f1g contracted to 6s4p3d1f1g pattern {711111/2111/211/2/1}
 Group   3 Type O   : 12s5p4d2f1g contracted to 6s4p3d1f1g pattern {711111/2111/211/2/1}
 Group   4 Type F   : 12s5p4d2f1g contracted to 6s4p3d1f1g pattern {711111/2111/211/2/1}
 Group   5 Type H   : 5s2p1d contracted to 3s1p1d pattern {311/2/1}
 Group   6 Type S   : 14s5p5d2f1g contracted to 8s4p3d1f1g pattern {71111111/2111/311/2/1}

Atom   0C    basis set group =>   1
Atom   1N    basis set group =>   2
Atom   2C    basis set group =>   1
Atom   3C    basis set group =>   1
Atom   4C    basis set group =>   1
Atom   5C    basis set group =>   1
Atom   6N    basis set group =>   2
Atom   7O    basis set group =>   3
Atom   8O    basis set group =>   3
Atom   9F    basis set group =>   4
Atom  10H    basis set group =>   5
Atom  11H    basis set group =>   5
Atom  12H    basis set group =>   5
Atom  13C    basis set group =>   1
Atom  14H    basis set group =>   5
Atom  15H    basis set group =>   5
Atom  16H    basis set group =>   5
Atom  17S    basis set group =>   6


           ************************************************************
           *        Program running with 24 parallel MPI-processes    *
           *              working on a common directory               *
           ************************************************************
------------------------------------------------------------------------------
                           ORCA GTO INTEGRAL CALCULATION
                           -- RI-GTO INTEGRALS CHOSEN --
------------------------------------------------------------------------------
------------------------------------------------------------------------------
                   ___                                                        
                  /   \      - P O W E R E D   B Y -                         
                 /     \                                                     
                 |  |  |   _    _      __       _____    __    __             
                 |  |  |  | |  | |    /  \     |  _  \  |  |  /  |          
                  \  \/   | |  | |   /    \    | | | |  |  | /  /          
                 / \  \   | |__| |  /  /\  \   | |_| |  |  |/  /          
                |  |  |   |  __  | /  /__\  \  |    /   |      \           
                |  |  |   | |  | | |   __   |  |    \   |  |\   \          
                \     /   | |  | | |  |  |  |  | |\  \  |  | \   \       
                 \___/    |_|  |_| |__|  |__|  |_| \__\ |__|  \__/        
                                                                              
                      - O R C A' S   B I G   F R I E N D -                    
                                      &                                       
                       - I N T E G R A L  F E E D E R -                       
                                                                              
 v1 FN, 2020, v2 2021                                                         
------------------------------------------------------------------------------


Reading SHARK input file structure_opt.SHARKINP.tmp ... ok
----------------------
SHARK INTEGRAL PACKAGE
----------------------

Number of atoms                             ...     18
Number of basis functions                   ...    314
Number of shells                            ...    154
Maximum angular momentum                    ...      2
Integral batch strategy                     ... SHARK/LIBINT Hybrid
RI-J (if used) integral strategy            ... SPLIT-RIJ (Revised 2003 algorithm where possible)
Printlevel                                  ...      1
Contraction scheme used                     ... SEGMENTED contraction
Coulomb Range Separation                    ... NOT USED
Exchange Range Separation                   ... Long Range
   Mu parameter                             ...  0.300000
   Scaling (regular/separated)              ...  0.157706  0.842294
Finite Nucleus Model                        ... NOT USED
Auxiliary Coulomb fitting basis             ... AVAILABLE
   # of basis functions in Aux-J            ...    656
   # of shells in Aux-J                     ...    212
   Maximum angular momentum in Aux-J        ...      4
Auxiliary J/K fitting basis                 ... NOT available
Auxiliary Correlation fitting basis         ... NOT available
Auxiliary 'external' fitting basis          ... NOT available
Integral threshold                          ...     2.500000e-11
Primitive cut-off                           ...     2.500000e-12
Primitive pair pre-selection threshold      ...     2.500000e-12

Calculating pre-screening integrals         ... done (  0.0 sec) Dimension = 154
Organizing shell pair data                  ... done (  0.1 sec)
Shell pair information
Total number of shell pairs                 ...     11935
Shell pairs after pre-screening             ...      8550
Total number of primitive shell pairs       ...     38500
Primitive shell pairs kept                  ...     19745
          la=0 lb=0:   2604 shell pairs
          la=1 lb=0:   3520 shell pairs
          la=1 lb=1:   1224 shell pairs
          la=2 lb=0:    677 shell pairs
          la=2 lb=1:    473 shell pairs
          la=2 lb=2:     52 shell pairs

Calculating one electron integrals          ... done (  0.0 sec)
Calculating RI/J V-Matrix + Cholesky decomp.... done (  0.1 sec)
Calculating Nuclear repulsion               ... done (  0.2 sec) ENN=    659.058699194446 Eh

SHARK setup successfully completed in   0.9 seconds

Maximum memory used throughout the entire GTOINT-calculation: 17.3 MB


           ************************************************************
           *        Program running with 24 parallel MPI-processes    *
           *              working on a common directory               *
           ************************************************************
-------------------------------------------------------------------------------
                                 ORCA SCF
-------------------------------------------------------------------------------

------------
SCF SETTINGS
------------
Hamiltonian:
 Density Functional     Method          .... DFT(GTOs)
 Exchange Functional    Exchange        .... WB97X
 Correlation Functional Correlation     .... WB97X
 Gradients option       PostSCFGGA      .... off
 Hybrid DFT is turned on
   Fraction HF Exchange ScalHFX         ....  0.157706
   Scaling of DF-GGA-X  ScalDFX         ....  0.000000
   Scaling of DF-GGA-C  ScalDFC         ....  1.000000
   Scaling of DF-LDA-C  ScalLDAC        ....  1.000000
   Perturbative correction              ....  0.000000
   Density functional embedding theory  .... OFF
 Long-range corrected/Screened/Range-Separated Hybrid DFT is turned on
   Amount of maximum screened exact exchange              ....  0.842294
   Range separation parameter mu (erf(mu*r12)/r12)        ....  0.300000
 RI-approximation to the Coulomb term is turned on
   Number of AuxJ basis functions       .... 656
   RIJ-COSX (HFX calculated with COS-X)).... on


General Settings:
 Integral files         IntName         .... structure_opt
 Hartree-Fock type      HFTyp           .... RHF
 Total Charge           Charge          ....   -1
 Multiplicity           Mult            ....    1
 Number of Electrons    NEL             ....   98
 Basis Dimension        Dim             ....  314
 Nuclear Repulsion      ENuc            ....    659.0586991944 Eh

Convergence Acceleration:
 DIIS                   CNVDIIS         .... on
   Start iteration      DIISMaxIt       ....    12
   Startup error        DIISStart       ....  0.200000
   # of expansion vecs  DIISMaxEq       ....     5
   Bias factor          DIISBfac        ....   1.050
   Max. coefficient     DIISMaxC        ....  10.000
 Trust-Rad. Augm. Hess. CNVTRAH         .... auto
   Auto Start mean grad. ratio tolernc. ....  1.125000
   Auto Start start iteration           ....    20
   Auto Start num. interpolation iter.  ....    10
   Max. Number of Micro iterations      ....    16
   Max. Number of Macro iterations      .... Maxiter - #DIIS iter
   Number of Davidson start vectors     ....     2
   Converg. threshold I  (grad. norm)   ....   1.000e-05
   Converg. threshold II (energy diff.) ....   1.000e-08
   Grad. Scal. Fac. for Micro threshold ....   0.100
   Minimum threshold for Micro iter.    ....   0.010
   NR start threshold (gradient norm)   ....   0.001
   Initial trust radius                 ....   0.400
   Minimum AH scaling param. (alpha)    ....   1.000
   Maximum AH scaling param. (alpha)    .... 1000.000
   Orbital update algorithm             .... Taylor
   White noise on init. David. guess    .... on
   Maximum white noise                  ....   0.010
   Quad. conv. algorithm                .... NR
 SOSCF                  CNVSOSCF        .... on
   Start iteration      SOSCFMaxIt      ....   150
   Startup grad/error   SOSCFStart      ....  0.003300
 Level Shifting         CNVShift        .... on
   Level shift para.    LevelShift      ....    0.2500
   Turn off err/grad.   ShiftErr        ....    0.0010
 Zerner damping         CNVZerner       .... off
 Static damping         CNVDamp         .... on
   Fraction old density DampFac         ....    0.7000
   Max. Damping (<1)    DampMax         ....    0.9800
   Min. Damping (>=0)   DampMin         ....    0.0000
   Turn off err/grad.   DampErr         ....    0.1000
 Fernandez-Rico         CNVRico         .... off

SCF Procedure:
 Maximum # iterations   MaxIter         ....   125
 SCF integral mode      SCFMode         .... Direct
   Integral package                     .... SHARK and LIBINT hybrid scheme
 Reset frequency        DirectResetFreq ....    20
 Integral Threshold     Thresh          ....  2.500e-11 Eh
 Primitive CutOff       TCut            ....  2.500e-12 Eh

Convergence Tolerance:
 Convergence Check Mode ConvCheckMode   .... Total+1el-Energy
 Convergence forced     ConvForced      .... 0
 Energy Change          TolE            ....  1.000e-08 Eh
 1-El. energy change                    ....  1.000e-05 Eh
 Orbital Gradient       TolG            ....  1.000e-05
 Orbital Rotation angle TolX            ....  1.000e-05
 DIIS Error             TolErr          ....  5.000e-07


Diagonalization of the overlap matrix:
Smallest eigenvalue                        ... 4.262e-06
Time for diagonalization                   ...    0.015 sec
Threshold for overlap eigenvalues          ... 1.000e-08
Number of eigenvalues below threshold      ... 0
Time for construction of square roots      ...    0.041 sec
Total time needed                          ...    0.058 sec

Time for model grid setup =    0.205 sec

------------------------------
INITIAL GUESS: MODEL POTENTIAL
------------------------------
Loading Hartree-Fock densities                     ... done
Calculating cut-offs                               ... done
Initializing the effective Hamiltonian             ... done
Setting up the integral package (SHARK)            ... done
Starting the Coulomb interaction                   ... done (   0.1 sec)
Reading the grid                                   ... done
Mapping shells                                     ... done
Starting the XC term evaluation                    ... done (   0.0 sec)
  promolecular density results
     # of electrons  =     96.995906295
     EX              =    -96.552344643
     EC              =     -3.327193873
     EX+EC           =    -99.879538516
Transforming the Hamiltonian                       ... done (   0.0 sec)
Diagonalizing the Hamiltonian                      ... done (   0.0 sec)
Back transforming the eigenvectors                 ... done (   0.0 sec)
Now organizing SCF variables                       ... done
                      ------------------
                      INITIAL GUESS DONE (   0.4 sec)
                      ------------------
-------------------
DFT GRID GENERATION
-------------------

General Integration Accuracy     IntAcc      ... 4.388
Radial Grid Type                 RadialGrid  ... OptM3 with GC (2021)
Angular Grid (max. ang.)         AngularGrid ... 4 (Lebedev-302)
Angular grid pruning method      GridPruning ... 4 (adaptive)
Weight generation scheme         WeightScheme... Becke
Basis function cutoff            BFCut       ... 1.0000e-11
Integration weight cutoff        WCut        ... 1.0000e-14
Angular grids for H and He will be reduced by one unit
Partially contracted basis set               ... off
Rotationally invariant grid construction     ... off

Total number of grid points                  ...    98133
Total number of batches                      ...     1542
Average number of points per batch           ...       63
Average number of grid points per atom       ...     5452
Time for grid setup =    0.738 sec

--------------------
COSX GRID GENERATION
--------------------

GRIDX 1
-------
General Integration Accuracy     IntAcc      ... 3.816
Radial Grid Type                 RadialGrid  ... OptM3 with GC (2021)
Angular Grid (max. ang.)         AngularGrid ... 1 (Lebedev-50)
Angular grid pruning method      GridPruning ... 4 (adaptive)
Weight generation scheme         WeightScheme... Becke
Basis function cutoff            BFCut       ... 1.0000e-11
Integration weight cutoff        WCut        ... 1.0000e-14
Angular grids for H and He will be reduced by one unit
Partially contracted basis set               ... on
Rotationally invariant grid construction     ... off

Total number of grid points                  ...    12259
Total number of batches                      ...      202
Average number of points per batch           ...       60
Average number of grid points per atom       ...      681
UseSFitting                                  ... on

GRIDX 2
-------
General Integration Accuracy     IntAcc      ... 4.020
Radial Grid Type                 RadialGrid  ... OptM3 with GC (2021)
Angular Grid (max. ang.)         AngularGrid ... 2 (Lebedev-110)
Angular grid pruning method      GridPruning ... 4 (adaptive)
Weight generation scheme         WeightScheme... Becke
Basis function cutoff            BFCut       ... 1.0000e-11
Integration weight cutoff        WCut        ... 1.0000e-14
Angular grids for H and He will be reduced by one unit
Partially contracted basis set               ... on
Rotationally invariant grid construction     ... off

Total number of grid points                  ...    31182
Total number of batches                      ...      496
Average number of points per batch           ...       62
Average number of grid points per atom       ...     1732
UseSFitting                                  ... on

GRIDX 3
-------
General Integration Accuracy     IntAcc      ... 4.338
Radial Grid Type                 RadialGrid  ... OptM3 with GC (2021)
Angular Grid (max. ang.)         AngularGrid ... 3 (Lebedev-194)
Angular grid pruning method      GridPruning ... 4 (adaptive)
Weight generation scheme         WeightScheme... Becke
Basis function cutoff            BFCut       ... 1.0000e-11
Integration weight cutoff        WCut        ... 1.0000e-14
Angular grids for H and He will be reduced by one unit
Partially contracted basis set               ... on
Rotationally invariant grid construction     ... off

Total number of grid points                  ...    69360
Total number of batches                      ...     1092
Average number of points per batch           ...       63
Average number of grid points per atom       ...     3853
UseSFitting                                  ... on

Time for X-Grid setup             =    1.243 sec


--------------------
CPCM SOLVATION MODEL
--------------------
CPCM parameters:
  Epsilon                                         ...      78.3550
  Refrac                                          ...       1.3328
  Rsolv                                           ...       1.3000
  Surface type                                    ... GAUSSIAN VDW
  Epsilon function type                           ...         CPCM
Solvent:                                     ... WATER
SMD-CDS solvent descriptors:
  Soln                                       ...    1.3328
  Soln25                                     ...    1.3323
  Sola                                       ...    0.0000
  Solb                                       ...    0.0000
  Solg                                       ...    0.0000
  Solc                                       ...    0.0000
  Solh                                       ...    0.0000
Radii:
 Radius for C  used is    3.4960 Bohr (=   1.8500 Ang.)
 Radius for N  used is    3.5716 Bohr (=   1.8900 Ang.)
 Radius for O  used is    2.8724 Bohr (=   1.5200 Ang.)
 Radius for F  used is    3.2692 Bohr (=   1.7300 Ang.)
 Radius for H  used is    2.2677 Bohr (=   1.2000 Ang.)
 Radius for S  used is    4.7054 Bohr (=   2.4900 Ang.)
Calculating surface                               ...        done! (  0.0s)
GEPOL surface points                              ...         1154
GEPOL Volume                                      ...    1364.4754
GEPOL Surface-area                                ...     848.9616
Calculating surface distance matrix               ...        done! (  0.0s)
Performing Cholesky decomposition & store         ...        done! (  0.1s)
Overall time for CPCM initialization              ...                 0.1s
--------------
SCF ITERATIONS
--------------
ITER       Energy         Delta-E        Max-DP      RMS-DP      [F,P]     Damp
               ***  Starting incremental Fock matrix formation  ***
  0   -989.8660236906   0.000000000000 0.34117592  0.00327796  0.2373505 0.7000
  1   -990.0282093814  -0.162185690729 0.28678960  0.00257601  0.1154936 0.7000
                               ***Turning on DIIS***
  2   -990.1006332657  -0.072423884334 1.72490008  0.00968736  0.0599755 0.0000
  3   -990.2246571430  -0.124023877317 0.79422468  0.00415776  0.0550153 0.0000
  4   -990.2437939326  -0.019136789547 0.28027029  0.00147383  0.0124236 0.0000
  5   -990.2449671945  -0.001173261887 0.14225721  0.00077046  0.0061333 0.0000
                      *** Initiating the SOSCF procedure ***
                           *** Shutting down DIIS ***
                      *** Re-Reading the Fockian *** 
                      *** Removing any level shift *** 
ITER      Energy       Delta-E        Grad      Rot      Max-DP    RMS-DP
  6   -990.24519759  -0.0002303980  0.001495  0.001495  0.042742  0.000257
               *** Restarting incremental Fock matrix formation ***
  7   -990.24527146  -0.0000738722  0.000979  0.002403  0.011040  0.000165
  8   -990.24531152  -0.0000400518  0.000373  0.002763  0.008952  0.000161
  9   -990.24531761  -0.0000060905  0.000692  0.000728  0.006543  0.000074
 10   -990.24532458  -0.0000069759  0.000113  0.000212  0.002487  0.000022
 11   -990.24532465  -0.0000000635  0.000092  0.000126  0.003379  0.000018
 12   -990.24532501  -0.0000003632  0.000014  0.000040  0.002063  0.000016
 13   -990.24532501  -0.0000000052  0.000007  0.000031  0.004067  0.000033
 14   -990.24532502  -0.0000000051  0.000005  0.000013  0.004794  0.000029
                  ***Gradient check signals convergence***
              ***Rediagonalizing the Fockian in SOSCF/NRSCF***

               *****************************************************
               *                     SUCCESS                       *
               *           SCF CONVERGED AFTER  15 CYCLES          *
               *****************************************************

Old exchange energy                            =    -28.432710898 Eh
New exchange energy                            =    -28.432716420 Eh
Exchange energy change after final integration =     -0.000005522 Eh
Total energy after final integration           =   -990.245330544 Eh
Final COS-X integration done in                =     3.340 sec

SMD CDS free energy correction energy :                 5.87376     Kcal/mol
Total Energy after SMD CDS correction =              -990.235970112 Eh

----------------
TOTAL SCF ENERGY
----------------

Total Energy       :         -990.23597011 Eh          -26945.69064 eV

Components:
Nuclear Repulsion  :          659.05869919 Eh           17933.89895 eV
Electronic Energy  :        -1649.29466931 Eh          -44879.58959 eV
One Electron Energy:        -2676.76014063 Eh          -72838.34646 eV
Two Electron Energy:         1027.46547133 Eh           27958.75687 eV
Max COSX asymmetry :            0.00000230 Eh               0.00006 eV
CPCM Dielectric    :           -0.13518728 Eh              -3.67863 eV
SMD CDS (Gcds)     :            0.00936043 Eh               0.25471 eV

Virial components:
Potential Energy   :        -1977.46869578 Eh          -53809.65884 eV
Kinetic Energy     :          987.23272567 Eh           26863.96820 eV
Virial Ratio       :            2.00304208


DFT components:
N(Alpha)           :       48.999780923954 electrons
N(Beta)            :       48.999780923954 electrons
N(Total)           :       97.999561847907 electrons
E(XC)              :      -73.338119224878 Eh       
DFET-embed. en.    :        0.000000000000 Eh       
CPCM Solvation Model Properties:
Surface-charge          :            0.94401263
Charge-correction       :           -0.00534754 Eh              -0.14551 eV
Free-energy (cav+disp)  :            0.00936043 Eh               0.25471 eV

---------------
SCF CONVERGENCE
---------------

  Last Energy change         ...   -2.6791e-09  Tolerance :   1.0000e-08
  Last MAX-Density change    ...    4.4409e-15  Tolerance :   1.0000e-07
  Last RMS-Density change    ...    4.7352e-17  Tolerance :   5.0000e-09
  Last Orbital Gradient      ...    1.9296e-06  Tolerance :   1.0000e-05
  Last Orbital Rotation      ...    1.8196e-06  Tolerance :   1.0000e-05

             **** THE GBW FILE WAS UPDATED (structure_opt.gbw) ****
             **** DENSITY structure_opt.scfp WAS UPDATED ****
             **** ENERGY FILE WAS UPDATED (structure_opt.en.tmp) ****
             **** THE GBW FILE WAS UPDATED (structure_opt.gbw) ****
             **** DENSITY structure_opt.scfp WAS UPDATED ****
----------------
ORBITAL ENERGIES
----------------

  NO   OCC          E(Eh)            E(eV) 
   0   2.0000     -88.720141     -2414.1978 
   1   2.0000     -24.793427      -674.6635 
   2   2.0000     -19.275742      -524.5196 
   3   2.0000     -19.244048      -523.6572 
   4   2.0000     -14.669959      -399.1899 
   5   2.0000     -14.435706      -392.8155 
   6   2.0000     -10.437842      -284.0281 
   7   2.0000     -10.364311      -282.0272 
   8   2.0000     -10.338372      -281.3214 
   9   2.0000     -10.321353      -280.8583 
  10   2.0000     -10.290675      -280.0235 
  11   2.0000     -10.236045      -278.5369 
  12   2.0000      -7.916032      -215.4062 
  13   2.0000      -5.879176      -159.9805 
  14   2.0000      -5.871786      -159.7794 
  15   2.0000      -5.871782      -159.7793 
  16   2.0000      -1.396462       -37.9997 
  17   2.0000      -1.348358       -36.6907 
  18   2.0000      -1.151621       -31.3372 
  19   2.0000      -1.109430       -30.1891 
  20   2.0000      -1.008567       -27.4445 
  21   2.0000      -0.943576       -25.6760 
  22   2.0000      -0.874156       -23.7870 
  23   2.0000      -0.836251       -22.7555 
  24   2.0000      -0.796817       -21.6825 
  25   2.0000      -0.769338       -20.9347 
  26   2.0000      -0.706131       -19.2148 
  27   2.0000      -0.686694       -18.6859 
  28   2.0000      -0.669539       -18.2191 
  29   2.0000      -0.665142       -18.0994 
  30   2.0000      -0.661862       -18.0102 
  31   2.0000      -0.633405       -17.2358 
  32   2.0000      -0.620471       -16.8839 
  33   2.0000      -0.615414       -16.7463 
  34   2.0000      -0.563943       -15.3457 
  35   2.0000      -0.537280       -14.6201 
  36   2.0000      -0.528101       -14.3704 
  37   2.0000      -0.528082       -14.3698 
  38   2.0000      -0.494555       -13.4575 
  39   2.0000      -0.494247       -13.4491 
  40   2.0000      -0.456225       -12.4145 
  41   2.0000      -0.432617       -11.7721 
  42   2.0000      -0.421790       -11.4775 
  43   2.0000      -0.416611       -11.3366 
  44   2.0000      -0.408190       -11.1074 
  45   2.0000      -0.390751       -10.6329 
  46   2.0000      -0.385092       -10.4789 
  47   2.0000      -0.258977        -7.0471 
  48   2.0000      -0.258948        -7.0463 
  49   0.0000      -0.064908        -1.7662 
  50   0.0000       0.022527         0.6130 
  51   0.0000       0.053968         1.4686 
  52   0.0000       0.055412         1.5078 
  53   0.0000       0.057513         1.5650 
  54   0.0000       0.067943         1.8488 
  55   0.0000       0.072089         1.9616 
  56   0.0000       0.087151         2.3715 
  57   0.0000       0.090337         2.4582 
  58   0.0000       0.090386         2.4595 
  59   0.0000       0.101172         2.7530 
  60   0.0000       0.112566         3.0631 
  61   0.0000       0.115837         3.1521 
  62   0.0000       0.124905         3.3988 
  63   0.0000       0.129991         3.5372 
  64   0.0000       0.133706         3.6383 
  65   0.0000       0.140207         3.8152 
  66   0.0000       0.142132         3.8676 
  67   0.0000       0.154528         4.2049 
  68   0.0000       0.163617         4.4523 
  69   0.0000       0.164394         4.4734 
  70   0.0000       0.167595         4.5605 
  71   0.0000       0.170785         4.6473 
  72   0.0000       0.173118         4.7108 
  73   0.0000       0.178151         4.8477 
  74   0.0000       0.179608         4.8874 
  75   0.0000       0.181254         4.9322 
  76   0.0000       0.191124         5.2007 
  77   0.0000       0.193582         5.2676 
  78   0.0000       0.198059         5.3895 
  79   0.0000       0.202133         5.5003 
  80   0.0000       0.204893         5.5754 
  81   0.0000       0.210922         5.7395 
  82   0.0000       0.220819         6.0088 
  83   0.0000       0.222212         6.0467 
  84   0.0000       0.234030         6.3683 
  85   0.0000       0.235837         6.4175 
  86   0.0000       0.249709         6.7949 
  87   0.0000       0.255873         6.9627 
  88   0.0000       0.260743         7.0952 
  89   0.0000       0.267822         7.2878 
  90   0.0000       0.270913         7.3719 
  91   0.0000       0.277078         7.5397 
  92   0.0000       0.278057         7.5663 
  93   0.0000       0.278740         7.5849 
  94   0.0000       0.281790         7.6679 
  95   0.0000       0.295896         8.0517 
  96   0.0000       0.303680         8.2635 
  97   0.0000       0.312601         8.5063 
  98   0.0000       0.318726         8.6730 
  99   0.0000       0.324705         8.8357 
 100   0.0000       0.327979         8.9248 
 101   0.0000       0.337036         9.1712 
 102   0.0000       0.349274         9.5042 
 103   0.0000       0.350611         9.5406 
 104   0.0000       0.360816         9.8183 
 105   0.0000       0.363031         9.8786 
 106   0.0000       0.369793        10.0626 
 107   0.0000       0.372911        10.1474 
 108   0.0000       0.397704        10.8221 
 109   0.0000       0.404009        10.9937 
 110   0.0000       0.408659        11.1202 
 111   0.0000       0.413783        11.2596 
 112   0.0000       0.421106        11.4589 
 113   0.0000       0.427806        11.6412 
 114   0.0000       0.440309        11.9814 
 115   0.0000       0.450283        12.2528 
 116   0.0000       0.455141        12.3850 
 117   0.0000       0.460096        12.5199 
 118   0.0000       0.467916        12.7326 
 119   0.0000       0.477698        12.9988 
 120   0.0000       0.491561        13.3760 
 121   0.0000       0.502464        13.6727 
 122   0.0000       0.519236        14.1291 
 123   0.0000       0.527764        14.3612 
 124   0.0000       0.528077        14.3697 
 125   0.0000       0.548357        14.9216 
 126   0.0000       0.582729        15.8569 
 127   0.0000       0.610378        16.6092 
 128   0.0000       0.612902        16.6779 
 129   0.0000       0.618760        16.8373 
 130   0.0000       0.625440        17.0191 
 131   0.0000       0.638559        17.3761 
 132   0.0000       0.655850        17.8466 
 133   0.0000       0.657838        17.9007 
 134   0.0000       0.668213        18.1830 
 135   0.0000       0.700671        19.0662 
 136   0.0000       0.702304        19.1107 
 137   0.0000       0.725736        19.7483 
 138   0.0000       0.744174        20.2500 
 139   0.0000       0.770402        20.9637 
 140   0.0000       0.770756        20.9733 
 141   0.0000       0.779500        21.2113 
 142   0.0000       0.810937        22.0667 
 143   0.0000       0.826388        22.4872 
 144   0.0000       0.836929        22.7740 
 145   0.0000       0.849654        23.1203 
 146   0.0000       0.850508        23.1435 
 147   0.0000       0.871696        23.7201 
 148   0.0000       0.898104        24.4387 
 149   0.0000       0.909491        24.7485 
 150   0.0000       0.919567        25.0227 
 151   0.0000       0.933371        25.3983 
 152   0.0000       0.953473        25.9453 
 153   0.0000       0.953827        25.9550 
 154   0.0000       0.960305        26.1312 
 155   0.0000       0.972489        26.4628 
 156   0.0000       0.976186        26.5634 
 157   0.0000       0.986840        26.8533 
 158   0.0000       1.004242        27.3268 
 159   0.0000       1.004254        27.3271 
 160   0.0000       1.005681        27.3660 
 161   0.0000       1.033982        28.1361 
 162   0.0000       1.043908        28.4062 
 163   0.0000       1.061643        28.8888 
 164   0.0000       1.074249        29.2318 
 165   0.0000       1.080183        29.3933 
 166   0.0000       1.083567        29.4854 
 167   0.0000       1.140092        31.0235 
 168   0.0000       1.144852        31.1530 
 169   0.0000       1.151773        31.3413 
 170   0.0000       1.172546        31.9066 
 171   0.0000       1.186943        32.2984 
 172   0.0000       1.198429        32.6109 
 173   0.0000       1.211945        32.9787 
 174   0.0000       1.249720        34.0066 
 175   0.0000       1.260315        34.2949 
 176   0.0000       1.277062        34.7506 
 177   0.0000       1.278829        34.7987 
 178   0.0000       1.279115        34.8065 
 179   0.0000       1.292755        35.1776 
 180   0.0000       1.298184        35.3254 
 181   0.0000       1.356533        36.9131 
 182   0.0000       1.395710        37.9792 
 183   0.0000       1.405326        38.2409 
 184   0.0000       1.471299        40.0361 
 185   0.0000       1.508046        41.0360 
 186   0.0000       1.549421        42.1619 
 187   0.0000       1.585987        43.1569 
 188   0.0000       1.589290        43.2468 
 189   0.0000       1.589945        43.2646 
 190   0.0000       1.617415        44.0121 
 191   0.0000       1.631647        44.3994 
 192   0.0000       1.655061        45.0365 
 193   0.0000       1.657526        45.1036 
 194   0.0000       1.692376        46.0519 
 195   0.0000       1.692667        46.0598 
 196   0.0000       1.703993        46.3680 
 197   0.0000       1.715155        46.6717 
 198   0.0000       1.748694        47.5844 
 199   0.0000       1.760870        47.9157 
 200   0.0000       1.786828        48.6221 
 201   0.0000       1.809245        49.2321 
 202   0.0000       1.809527        49.2397 
 203   0.0000       1.812617        49.3238 
 204   0.0000       1.842983        50.1501 
 205   0.0000       1.843558        50.1658 
 206   0.0000       1.869033        50.8590 
 207   0.0000       1.910538        51.9884 
 208   0.0000       1.933825        52.6221 
 209   0.0000       1.947220        52.9865 
 210   0.0000       1.969591        53.5953 
 211   0.0000       1.970299        53.6146 
 212   0.0000       1.990615        54.1674 
 213   0.0000       2.010655        54.7127 
 214   0.0000       2.031872        55.2900 
 215   0.0000       2.045158        55.6516 
 216   0.0000       2.050075        55.7854 
 217   0.0000       2.110212        57.4218 
 218   0.0000       2.140826        58.2548 
 219   0.0000       2.147974        58.4494 
 220   0.0000       2.167874        58.9908 
 221   0.0000       2.171493        59.0893 
 222   0.0000       2.176287        59.2198 
 223   0.0000       2.205929        60.0264 
 224   0.0000       2.292550        62.3834 
 225   0.0000       2.323763        63.2328 
 226   0.0000       2.331651        63.4475 
 227   0.0000       2.332250        63.4637 
 228   0.0000       2.399026        65.2808 
 229   0.0000       2.429226        66.1026 
 230   0.0000       2.493917        67.8629 
 231   0.0000       2.563528        69.7571 
 232   0.0000       2.588403        70.4340 
 233   0.0000       2.595456        70.6259 
 234   0.0000       2.604759        70.8791 
 235   0.0000       2.627016        71.4847 
 236   0.0000       2.658602        72.3442 
 237   0.0000       2.659634        72.3723 
 238   0.0000       2.672763        72.7296 
 239   0.0000       2.674158        72.7675 
 240   0.0000       2.692096        73.2556 
 241   0.0000       2.766694        75.2856 
 242   0.0000       2.784841        75.7794 
 243   0.0000       2.828764        76.9746 
 244   0.0000       2.839759        77.2738 
 245   0.0000       2.858044        77.7713 
 246   0.0000       2.867540        78.0297 
 247   0.0000       2.882963        78.4494 
 248   0.0000       2.894506        78.7635 
 249   0.0000       2.901498        78.9538 
 250   0.0000       2.931672        79.7748 
 251   0.0000       2.937156        79.9241 
 252   0.0000       2.960060        80.5473 
 253   0.0000       2.976358        80.9908 
 254   0.0000       2.986605        81.2697 
 255   0.0000       3.001424        81.6729 
 256   0.0000       3.008026        81.8526 
 257   0.0000       3.098018        84.3014 
 258   0.0000       3.152861        85.7937 
 259   0.0000       3.188558        86.7651 
 260   0.0000       3.268487        88.9400 
 261   0.0000       3.307266        89.9953 
 262   0.0000       3.307697        90.0070 
 263   0.0000       3.337674        90.8227 
 264   0.0000       3.368003        91.6480 
 265   0.0000       3.454201        93.9936 
 266   0.0000       3.497082        95.1604 
 267   0.0000       3.558586        96.8341 
 268   0.0000       3.593189        97.7756 
 269   0.0000       3.680774       100.1589 
 270   0.0000       3.703520       100.7779 
 271   0.0000       3.753104       102.1271 
 272   0.0000       3.853348       104.8549 
 273   0.0000       3.883454       105.6742 
 274   0.0000       3.888506       105.8116 
 275   0.0000       3.890662       105.8703 
 276   0.0000       3.903331       106.2150 
 277   0.0000       3.924358       106.7872 
 278   0.0000       4.014262       109.2336 
 279   0.0000       4.059625       110.4680 
 280   0.0000       4.119825       112.1061 
 281   0.0000       4.143604       112.7532 
 282   0.0000       4.168987       113.4439 
 283   0.0000       4.405535       119.8807 
 284   0.0000       4.478262       121.8597 
 285   0.0000       4.503442       122.5449 
 286   0.0000       4.760440       129.5382 
 287   0.0000       4.942969       134.5050 
 288   0.0000       5.072137       138.0199 
 289   0.0000       5.100269       138.7854 
 290   0.0000       5.192028       141.2823 
 291   0.0000       5.220297       142.0515 
 292   0.0000       5.314603       144.6177 
 293   0.0000       5.698612       155.0671 
 294   0.0000       6.129996       166.8057 
 295   0.0000       6.409820       174.4201 
 296   0.0000       6.538840       177.9309 
 297   0.0000       6.843402       186.2184 
 298   0.0000       7.976997       217.0651 
 299   0.0000      17.545242       477.4303 
 300   0.0000      17.545791       477.4453 
 301   0.0000      17.632792       479.8127 
 302   0.0000      23.649211       643.5278 
 303   0.0000      23.890200       650.0854 
 304   0.0000      23.984122       652.6411 
 305   0.0000      24.029207       653.8680 
 306   0.0000      24.070923       655.0031 
 307   0.0000      24.181124       658.0018 
 308   0.0000      35.374962       962.6017 
 309   0.0000      35.656879       970.2730 
 310   0.0000      49.899339      1357.8301 
 311   0.0000      49.963458      1359.5748 
 312   0.0000      66.792618      1817.5195 
 313   0.0000     188.965897      5142.0235 

--------------------
FRAGMENT INFORMATION
--------------------
Fragment  1:    0   1   2   3   4   5 
Fragment  2:    6   7   8   9  10  11  12 
Fragment  3:   13  14  15  16 
Fragment  4:   17 


                    ********************************
                    * MULLIKEN POPULATION ANALYSIS *
                    ********************************

-------------------------
MULLIKEN FRAGMENT CHARGES
-------------------------
 Fragment   0 :  -0.449371
 Fragment   1 :   0.449192
 Fragment   2 :  -0.027701
 Fragment   3 :  -0.972119
Sum of fragment charges:   -1.0000000

---------------------------------
MULLIKEN FRAGMENT OVERLAP CHARGES
---------------------------------
                  0          1          2          3    
      0      20.600952   0.614597  -0.000044  -0.000082
      1       0.614597  34.956879   0.000006   0.000070
      2      -0.000044   0.000006  11.653960  -0.689977
      3      -0.000082   0.000070  -0.689977  17.317114

-----------------------
MULLIKEN ATOMIC CHARGES
-----------------------
   0 C :   -0.010890
   1 N :   -0.201659
   2 C :   -0.295022
   3 C :   -0.261371
   4 C :    0.429000
   5 C :   -0.109430
   6 N :   -0.055244
   7 O :   -0.058463
   8 O :   -0.237761
   9 F :   -0.102731
  10 H :    0.296143
  11 H :    0.281030
  12 H :    0.326218
  13 C :   -0.408281
  14 H :    0.126374
  15 H :    0.126961
  16 H :    0.127245
  17 S :   -0.972119
Sum of atomic charges:   -1.0000000

--------------------------------
MULLIKEN REDUCED ORBITAL CHARGES
--------------------------------
  0 C s       :     3.254958  s :     3.254958
      pz      :     0.678599  p :     2.595472
      px      :     0.972484
      py      :     0.944390
      dz2     :     0.052756  d :     0.160460
      dxz     :     0.048846
      dyz     :     0.028446
      dx2y2   :     0.013770
      dxy     :     0.016642
  1 N s       :     3.625413  s :     3.625413
      pz      :     1.141596  p :     3.545719
      px      :     1.240793
      py      :     1.163330
      dz2     :     0.008167  d :     0.030528
      dxz     :     0.007239
      dyz     :     0.004757
      dx2y2   :     0.005505
      dxy     :     0.004859
  2 C s       :     3.377044  s :     3.377044
      pz      :     0.811510  p :     2.833832
      px      :     1.169297
      py      :     0.853025
      dz2     :     0.023580  d :     0.084146
      dxz     :     0.032196
      dyz     :     0.014800
      dx2y2   :     0.007222
      dxy     :     0.006348
  3 C s       :     3.212988  s :     3.212988
      pz      :     1.157564  p :     2.995223
      px      :     0.870870
      py      :     0.966789
      dz2     :     0.015294  d :     0.053160
      dxz     :     0.017413
      dyz     :     0.005093
      dx2y2   :     0.008213
      dxy     :     0.007147
  4 C s       :     2.510465  s :     2.510465
      pz      :     0.909203  p :     3.003441
      px      :     1.246881
      py      :     0.847358
      dz2     :     0.016547  d :     0.057094
      dxz     :     0.015857
      dyz     :     0.010570
      dx2y2   :     0.007214
      dxy     :     0.006906
  5 C s       :     3.304313  s :     3.304313
      pz      :     1.121643  p :     2.731973
      px      :     0.486926
      py      :     1.123404
      dz2     :     0.013628  d :     0.073144
      dxz     :     0.029767
      dyz     :     0.010341
      dx2y2   :     0.011216
      dxy     :     0.008192
  6 N s       :     3.582037  s :     3.582037
      pz      :     1.052902  p :     3.364214
      px      :     1.209089
      py      :     1.102223
      dz2     :     0.027717  d :     0.108994
      dxz     :     0.039365
      dyz     :     0.023078
      dx2y2   :     0.008550
      dxy     :     0.010284
  7 O s       :     3.783868  s :     3.783868
      pz      :     1.027178  p :     4.255896
      px      :     1.828385
      py      :     1.400333
      dz2     :     0.009710  d :     0.018700
      dxz     :     0.003513
      dyz     :     0.005307
      dx2y2   :     0.000102
      dxy     :     0.000067
  8 O s       :     3.823904  s :     3.823904
      pz      :     1.624713  p :     4.401741
      px      :     1.218369
      py      :     1.558660
      dz2     :     0.001058  d :     0.012115
      dxz     :     0.004900
      dyz     :     0.000879
      dx2y2   :     0.003118
      dxy     :     0.002159
  9 F s       :     3.918795  s :     3.918795
      pz      :     1.388906  p :     5.178603
      px      :     1.915761
      py      :     1.873935
      dz2     :     0.003097  d :     0.005333
      dxz     :     0.000998
      dyz     :     0.001201
      dx2y2   :     0.000027
      dxy     :     0.000009
 10 H s       :     0.679958  s :     0.679958
      pz      :     0.005481  p :     0.023899
      px      :     0.014122
      py      :     0.004296
 11 H s       :     0.694007  s :     0.694007
      pz      :     0.016373  p :     0.024963
      px      :     0.003655
      py      :     0.004935
 12 H s       :     0.648261  s :     0.648261
      pz      :     0.007742  p :     0.025521
      px      :     0.013378
      py      :     0.004401
 13 C s       :     3.268067  s :     3.268067
      pz      :     1.051149  p :     3.087625
      px      :     1.052566
      py      :     0.983910
      dz2     :     0.011607  d :     0.052589
      dxz     :     0.004710
      dyz     :     0.012840
      dx2y2   :     0.014930
      dxy     :     0.008502
 14 H s       :     0.850929  s :     0.850929
      pz      :     0.012201  p :     0.022697
      px      :     0.005585
      py      :     0.004912
 15 H s       :     0.850313  s :     0.850313
      pz      :     0.004674  p :     0.022726
      px      :     0.013370
      py      :     0.004682
 16 H s       :     0.849993  s :     0.849993
      pz      :     0.007847  p :     0.022762
      px      :     0.005848
      py      :     0.009067
 17 S s       :     6.023557  s :     6.023557
      pz      :     3.893143  p :    10.917138
      px      :     3.903179
      py      :     3.120816
      dz2     :     0.004106  d :     0.031424
      dxz     :     0.001097
      dyz     :     0.008003
      dx2y2   :     0.010780
      dxy     :     0.007438


                     *******************************
                     * LOEWDIN POPULATION ANALYSIS *
                     *******************************

------------------------
LOEWDIN FRAGMENT CHARGES
------------------------
 Fragment   0 :   0.057718
 Fragment   1 :  -0.057730
 Fragment   2 :  -0.355396
 Fragment   3 :  -0.644591

----------------------------
LOEWDIN FRAGMENT BOND ORDERS
----------------------------
                  0          1          2          3    
      0      56.960952   6.778913   0.000016   0.000086
      1       6.778913  43.787625   0.000004   0.000033
      2       0.000016   0.000004  15.419628   1.742593
      3       0.000086   0.000033   1.742593  16.644591

----------------------
LOEWDIN ATOMIC CHARGES
----------------------
   0 C :    0.111517
   1 N :   -0.111748
   2 C :    0.077391
   3 C :   -0.033807
   4 C :    0.078053
   5 C :   -0.063687
   6 N :    0.241472
   7 O :   -0.153930
   8 O :   -0.338959
   9 F :   -0.078071
  10 H :    0.087031
  11 H :    0.084555
  12 H :    0.100171
  13 C :   -0.358878
  14 H :    0.001272
  15 H :    0.001232
  16 H :    0.000978
  17 S :   -0.644591

-------------------------------
LOEWDIN REDUCED ORBITAL CHARGES
-------------------------------
  0 C s       :     2.743708  s :     2.743708
      pz      :     0.849375  p :     2.815647
      px      :     1.080461
      py      :     0.885811
      dz2     :     0.112516  d :     0.329129
      dxz     :     0.100720
      dyz     :     0.050393
      dx2y2   :     0.033877
      dxy     :     0.031622
  1 N s       :     3.151621  s :     3.151621
      pz      :     1.301195  p :     3.903288
      px      :     1.416889
      py      :     1.185204
      dz2     :     0.017388  d :     0.056839
      dxz     :     0.015719
      dyz     :     0.007790
      dx2y2   :     0.009544
      dxy     :     0.006398
  2 C s       :     2.786889  s :     2.786889
      pz      :     1.032879  p :     2.953876
      px      :     1.096546
      py      :     0.824451
      dz2     :     0.060302  d :     0.181844
      dxz     :     0.069057
      dyz     :     0.027981
      dx2y2   :     0.014016
      dxy     :     0.010489
  3 C s       :     2.781239  s :     2.781239
      pz      :     1.081333  p :     3.128209
      px      :     1.092130
      py      :     0.954746
      dz2     :     0.034119  d :     0.124358
      dxz     :     0.045069
      dyz     :     0.008011
      dx2y2   :     0.022212
      dxy     :     0.014948
  4 C s       :     2.779249  s :     2.779249
      pz      :     1.065823  p :     3.014402
      px      :     1.108247
      py      :     0.840331
      dz2     :     0.040905  d :     0.128296
      dxz     :     0.039164
      dyz     :     0.021254
      dx2y2   :     0.015049
      dxy     :     0.011924
  5 C s       :     2.757951  s :     2.757951
      pz      :     1.088467  p :     3.125413
      px      :     0.957244
      py      :     1.079701
      dz2     :     0.039910  d :     0.180323
      dxz     :     0.071777
      dyz     :     0.019834
      dx2y2   :     0.031418
      dxy     :     0.017385
  6 N s       :     3.052021  s :     3.052021
      pz      :     1.205975  p :     3.500146
      px      :     1.215041
      py      :     1.079130
      dz2     :     0.060435  d :     0.206362
      dxz     :     0.076196
      dyz     :     0.035694
      dx2y2   :     0.017515
      dxy     :     0.016521
  7 O s       :     3.581228  s :     3.581228
      pz      :     1.283684  p :     4.540387
      px      :     1.838821
      py      :     1.417882
      dz2     :     0.020438  d :     0.032315
      dxz     :     0.005157
      dyz     :     0.006530
      dx2y2   :     0.000119
      dxy     :     0.000071
  8 O s       :     3.667382  s :     3.667382
      pz      :     1.709912  p :     4.651096
      px      :     1.369845
      py      :     1.571339
      dz2     :     0.001545  d :     0.020482
      dxz     :     0.009263
      dyz     :     0.001173
      dx2y2   :     0.005711
      dxy     :     0.002790
  9 F s       :     3.714980  s :     3.714980
      pz      :     1.535134  p :     5.355720
      px      :     1.934345
      py      :     1.886240
      dz2     :     0.004766  d :     0.007371
      dxz     :     0.001184
      dyz     :     0.001375
      dx2y2   :     0.000037
      dxy     :     0.000009
 10 H s       :     0.842569  s :     0.842569
      pz      :     0.016676  p :     0.070400
      px      :     0.042297
      py      :     0.011427
 11 H s       :     0.842995  s :     0.842995
      pz      :     0.047834  p :     0.072450
      px      :     0.011210
      py      :     0.013406
 12 H s       :     0.826601  s :     0.826601
      pz      :     0.023098  p :     0.073228
      px      :     0.038713
      py      :     0.011417
 13 C s       :     2.858351  s :     2.858351
      pz      :     1.121744  p :     3.393666
      px      :     1.121486
      py      :     1.150435
      dz2     :     0.023193  d :     0.106861
      dxz     :     0.008608
      dyz     :     0.026366
      dx2y2   :     0.031251
      dxy     :     0.017444
 14 H s       :     0.927099  s :     0.927099
      pz      :     0.039429  p :     0.071629
      px      :     0.016616
      py      :     0.015584
 15 H s       :     0.927011  s :     0.927011
      pz      :     0.013636  p :     0.071758
      px      :     0.043407
      py      :     0.014715
 16 H s       :     0.927098  s :     0.927098
      pz      :     0.024190  p :     0.071924
      px      :     0.017501
      py      :     0.030233
 17 S s       :     5.613986  s :     5.613986
      pz      :     3.858828  p :    10.993473
      px      :     3.866099
      py      :     3.268546
      dz2     :     0.004849  d :     0.037132
      dxz     :     0.001268
      dyz     :     0.009422
      dx2y2   :     0.012861
      dxy     :     0.008733


                      *****************************
                      * MAYER POPULATION ANALYSIS *
                      *****************************

  NA   - Mulliken gross atomic population
  ZA   - Total nuclear charge
  QA   - Mulliken gross atomic charge
  VA   - Mayer's total valence
  BVA  - Mayer's bonded valence
  FA   - Mayer's free valence

  ATOM       NA         ZA         QA         VA         BVA        FA
  0 C      6.0109     6.0000    -0.0109     4.3355     4.3355     0.0000
  1 N      7.2017     7.0000    -0.2017     2.6992     2.6992     0.0000
  2 C      6.2950     6.0000    -0.2950     3.9811     3.9811     0.0000
  3 C      6.2614     6.0000    -0.2614     4.3512     4.3512     0.0000
  4 C      5.5710     6.0000     0.4290     4.1705     4.1705    -0.0000
  5 C      6.1094     6.0000    -0.1094     3.4026     3.4026     0.0000
  6 N      7.0552     7.0000    -0.0552     3.8935     3.8935     0.0000
  7 O      8.0585     8.0000    -0.0585     2.2126     2.2126    -0.0000
  8 O      8.2378     8.0000    -0.2378     1.9975     1.9975     0.0000
  9 F      9.1027     9.0000    -0.1027     0.9615     0.9615     0.0000
 10 H      0.7039     1.0000     0.2961     0.8712     0.8712     0.0000
 11 H      0.7190     1.0000     0.2810     0.9035     0.9035     0.0000
 12 H      0.6738     1.0000     0.3262     0.8339     0.8339     0.0000
 13 C      6.4083     6.0000    -0.4083     3.5650     3.5650     0.0000
 14 H      0.8736     1.0000     0.1264     0.9426     0.9426     0.0000
 15 H      0.8730     1.0000     0.1270     0.9424     0.9424    -0.0000
 16 H      0.8728     1.0000     0.1272     0.9422     0.9422     0.0000
 17 S     16.9721    16.0000    -0.9721     0.5900     0.5900    -0.0000

  Mayer bond orders larger than 0.100000
B(  0-C ,  1-N ) :   1.2945 B(  0-C ,  2-C ) :   0.1927 B(  0-C ,  3-C ) :   0.1504 
B(  0-C ,  4-C ) :   0.3189 B(  0-C ,  5-C ) :   1.1930 B(  0-C ,  6-N ) :  -0.1900 
B(  0-C ,  9-F ) :   1.3878 B(  1-N ,  2-C ) :   1.1818 B(  1-N ,  5-C ) :   0.1777 
B(  2-C ,  3-C ) :   1.5889 B(  2-C , 10-H ) :   0.8833 B(  3-C ,  4-C ) :   1.4858 
B(  3-C ,  8-O ) :   0.1330 B(  3-C , 11-H ) :   0.8444 B(  4-C ,  5-C ) :   1.6074 
B(  4-C ,  6-N ) :  -0.1363 B(  4-C ,  8-O ) :   0.1563 B(  4-C ,  9-F ) :  -0.1147 
B(  4-C , 12-H ) :   0.7543 B(  5-C ,  6-N ) :   0.7437 B(  5-C ,  8-O ) :  -0.1547 
B(  5-C ,  9-F ) :  -0.3433 B(  5-C , 12-H ) :   0.1179 B(  6-N ,  7-O ) :   1.8532 
[...]
 290   0.0000       5.197230       141.4238 
 291   0.0000       5.287016       143.8670 
 292   0.0000       5.370403       146.1361 
 293   0.0000       5.859267       159.4388 
 294   0.0000       6.335479       172.3971 
 295   0.0000       6.418056       174.6442 
 296   0.0000       6.549091       178.2098 
 297   0.0000       6.864048       186.7802 
 298   0.0000       7.977050       217.0666 
 299   0.0000      17.545277       477.4313 
 300   0.0000      17.545819       477.4460 
 301   0.0000      17.632892       479.8154 
 302   0.0000      23.699719       644.9021 
 303   0.0000      23.954374       651.8316 
 304   0.0000      24.018399       653.5739 
 305   0.0000      24.029463       653.8749 
 306   0.0000      24.135851       656.7699 
 307   0.0000      24.245378       659.7503 
 308   0.0000      35.449866       964.6399 
 309   0.0000      35.736294       972.4340 
 310   0.0000      49.920653      1358.4100 
 311   0.0000      50.036708      1361.5681 
 312   0.0000      66.806097      1817.8863 
 313   0.0000     188.965948      5142.0249 

--------------------
FRAGMENT INFORMATION
--------------------
Fragment  1:    0   1   2   3   4   5 
Fragment  2:    6   7   8   9  10  11  12 
Fragment  3:   13  14  15  16 
Fragment  4:   17 


                    ********************************
                    * MULLIKEN POPULATION ANALYSIS *
                    ********************************

-------------------------
MULLIKEN FRAGMENT CHARGES
-------------------------
 Fragment   0 :  -0.463448
 Fragment   1 :   0.463270
 Fragment   2 :  -0.027626
 Fragment   3 :  -0.972195
Sum of fragment charges:   -1.0000000

---------------------------------
MULLIKEN FRAGMENT OVERLAP CHARGES
---------------------------------
                  0          1          2          3    
      0      18.842740   0.473027  -0.000041  -0.000069
      1       0.473027  35.095680   0.000004   0.000063
      2      -0.000041   0.000004  11.653842  -0.689734
      3      -0.000069   0.000063  -0.689734  17.317065

-----------------------
MULLIKEN ATOMIC CHARGES
-----------------------
   0 C :    0.016513
   1 N :   -0.190283
   2 C :   -0.286911
   3 C :   -0.320033
   4 C :    0.500999
   5 C :   -0.183733
   6 N :   -0.007515
   7 O :   -0.177772
   8 O :   -0.118228
   9 F :   -0.118225
  10 H :    0.285122
  11 H :    0.279559
  12 H :    0.320328
  13 C :   -0.408168
  14 H :    0.126539
  15 H :    0.126975
  16 H :    0.127028
  17 S :   -0.972195
Sum of atomic charges:   -1.0000000

--------------------------------
MULLIKEN REDUCED ORBITAL CHARGES
--------------------------------
  0 C s       :     3.216706  s :     3.216706
      pz      :     0.672090  p :     2.596539
      px      :     0.976124
      py      :     0.948325
      dz2     :     0.057168  d :     0.170243
      dxz     :     0.050576
      dyz     :     0.029444
      dx2y2   :     0.014675
      dxy     :     0.018380
  1 N s       :     3.604402  s :     3.604402
      pz      :     1.150612  p :     3.551346
      px      :     1.248704
      py      :     1.152030
      dz2     :     0.008767  d :     0.034535
      dxz     :     0.008587
      dyz     :     0.005223
      dx2y2   :     0.006109
      dxy     :     0.005850
  2 C s       :     3.322636  s :     3.322636
      pz      :     0.825238  p :     2.875323
      px      :     1.179870
      py      :     0.870215
      dz2     :     0.025185  d :     0.088952
      dxz     :     0.033456
      dyz     :     0.015884
      dx2y2   :     0.007895
      dxy     :     0.006532
  3 C s       :     3.258339  s :     3.258339
      pz      :     1.156168  p :     3.006083
      px      :     0.881735
      py      :     0.968179
      dz2     :     0.015875  d :     0.055611
      dxz     :     0.018411
      dyz     :     0.005669
      dx2y2   :     0.008181
      dxy     :     0.007475
  4 C s       :     2.421312  s :     2.421312
      pz      :     0.929341  p :     3.018037
      px      :     1.238916
      py      :     0.849780
      dz2     :     0.017047  d :     0.059651
      dxz     :     0.016317
      dyz     :     0.011354
      dx2y2   :     0.007721
      dxy     :     0.007212
  5 C s       :     3.349306  s :     3.349306
      pz      :     1.127318  p :     2.760816
      px      :     0.503508
      py      :     1.129990
      dz2     :     0.013339  d :     0.073611
      dxz     :     0.030687
      dyz     :     0.010361
      dx2y2   :     0.011127
      dxy     :     0.008098
  6 N s       :     3.485541  s :     3.485541
      pz      :     1.046649  p :     3.384495
      px      :     1.228486
      py      :     1.109360
      dz2     :     0.037099  d :     0.137478
      dxz     :     0.044584
      dyz     :     0.027901
      dx2y2   :     0.012449
      dxy     :     0.015446
  7 O s       :     3.811930  s :     3.811930
      pz      :     1.027982  p :     4.347774
      px      :     1.842954
      py      :     1.476839
      dz2     :     0.009697  d :     0.018068
      dxz     :     0.003221
      dyz     :     0.004974
      dx2y2   :     0.000106
      dxy     :     0.000069
  8 O s       :     3.780074  s :     3.780074
      pz      :     1.601559  p :     4.318200
      px      :     1.282232
      py      :     1.434409
      dz2     :     0.002241  d :     0.019955
      dxz     :     0.007032
      dyz     :     0.001778
      dx2y2   :     0.004631
      dxy     :     0.004272
  9 F s       :     3.917793  s :     3.917793
      pz      :     1.398556  p :     5.195196
      px      :     1.917939
      py      :     1.878701
      dz2     :     0.003050  d :     0.005236
      dxz     :     0.000973
      dyz     :     0.001172
      dx2y2   :     0.000030
      dxy     :     0.000010
 10 H s       :     0.691581  s :     0.691581
      pz      :     0.004488  p :     0.023296
      px      :     0.014490
      py      :     0.004319
 11 H s       :     0.695252  s :     0.695252
      pz      :     0.016419  p :     0.025189
      px      :     0.003787
      py      :     0.004984
 12 H s       :     0.653846  s :     0.653846
      pz      :     0.007641  p :     0.025826
      px      :     0.013708
      py      :     0.004477
 13 C s       :     3.267936  s :     3.267936
      pz      :     1.051102  p :     3.087643
      px      :     1.052600
      py      :     0.983941
      dz2     :     0.011627  d :     0.052590
      dxz     :     0.004724
      dyz     :     0.012813
      dx2y2   :     0.014939
      dxy     :     0.008486
 14 H s       :     0.850733  s :     0.850733
      pz      :     0.012208  p :     0.022728
      px      :     0.005602
      py      :     0.004918
 15 H s       :     0.850291  s :     0.850291
      pz      :     0.004677  p :     0.022734
      px      :     0.013372
      py      :     0.004685
 16 H s       :     0.850240  s :     0.850240
      pz      :     0.007828  p :     0.022732
      px      :     0.005833
      py      :     0.009071
 17 S s       :     6.023597  s :     6.023597
      pz      :     3.891791  p :    10.917174
      px      :     3.903303
      py      :     3.122079
      dz2     :     0.004090  d :     0.031424
      dxz     :     0.001108
      dyz     :     0.008049
      dx2y2   :     0.010755
      dxy     :     0.007422


                     *******************************
                     * LOEWDIN POPULATION ANALYSIS *
                     *******************************

------------------------
LOEWDIN FRAGMENT CHARGES
------------------------
 Fragment   0 :   0.039922
 Fragment   1 :  -0.039935
 Fragment   2 :  -0.355409
 Fragment   3 :  -0.644578

----------------------------
LOEWDIN FRAGMENT BOND ORDERS
----------------------------
                  0          1          2          3    
      0      57.186434   6.721389   0.000016   0.000086
      1       6.721389  44.210191   0.000004   0.000033
      2       0.000016   0.000004  15.419723   1.742579
      3       0.000086   0.000033   1.742579  16.644578

----------------------
LOEWDIN ATOMIC CHARGES
----------------------
   0 C :    0.083285
   1 N :   -0.080410
   2 C :    0.058150
   3 C :   -0.032987
   4 C :    0.075078
   5 C :   -0.063194
   6 N :    0.202536
   7 O :   -0.224437
   8 O :   -0.197809
   9 F :   -0.088305
  10 H :    0.083780
  11 H :    0.085950
  12 H :    0.098349
  13 C :   -0.358840
  14 H :    0.001073
  15 H :    0.001181
  16 H :    0.001177
  17 S :   -0.644578

-------------------------------
LOEWDIN REDUCED ORBITAL CHARGES
-------------------------------
  0 C s       :     2.730763  s :     2.730763
      pz      :     0.852210  p :     2.834861
      px      :     1.094845
      py      :     0.887806
      dz2     :     0.121824  d :     0.351091
      dxz     :     0.104244
      dyz     :     0.052152
      dx2y2   :     0.037284
      dxy     :     0.035587
  1 N s       :     3.108752  s :     3.108752
      pz      :     1.301003  p :     3.906685
      px      :     1.432580
      py      :     1.173102
      dz2     :     0.019017  d :     0.064973
      dxz     :     0.018309
      dyz     :     0.009052
      dx2y2   :     0.010746
      dxy     :     0.007850
  2 C s       :     2.774375  s :     2.774375
      pz      :     1.042326  p :     2.973821
      px      :     1.092622
      py      :     0.838872
      dz2     :     0.064367  d :     0.193654
      dxz     :     0.072794
      dyz     :     0.030580
      dx2y2   :     0.015175
      dxy     :     0.010738
  3 C s       :     2.772402  s :     2.772402
      pz      :     1.079680  p :     3.131156
      px      :     1.096125
      py      :     0.955351
      dz2     :     0.035196  d :     0.129429
      dxz     :     0.047275
      dyz     :     0.008816
      dx2y2   :     0.022377
      dxy     :     0.015765
  4 C s       :     2.768329  s :     2.768329
      pz      :     1.074424  p :     3.021757
      px      :     1.105257
      py      :     0.842076
      dz2     :     0.042309  d :     0.134836
      dxz     :     0.040875
      dyz     :     0.022954
      dx2y2   :     0.016085
      dxy     :     0.012614
  5 C s       :     2.752468  s :     2.752468
      pz      :     1.090862  p :     3.128914
      px      :     0.956058
      py      :     1.081993
      dz2     :     0.039818  d :     0.181813
      dxz     :     0.073709
      dyz     :     0.020117
      dx2y2   :     0.030907
      dxy     :     0.017261
  6 N s       :     2.999864  s :     2.999864
      pz      :     1.218282  p :     3.531637
      px      :     1.231744
      py      :     1.081611
      dz2     :     0.079091  d :     0.265963
      dxz     :     0.090687
      dyz     :     0.044097
      dx2y2   :     0.026957
      dxy     :     0.025131
  7 O s       :     3.573940  s :     3.573940
      pz      :     1.278685  p :     4.618950
      px      :     1.850155
      py      :     1.490110
      dz2     :     0.020364  d :     0.031546
      dxz     :     0.004809
      dyz     :     0.006167
      dx2y2   :     0.000131
      dxy     :     0.000074
  8 O s       :     3.550158  s :     3.550158
      pz      :     1.709350  p :     4.612611
      px      :     1.450949
      py      :     1.452311
      dz2     :     0.003478  d :     0.035041
      dxz     :     0.014346
      dyz     :     0.002454
      dx2y2   :     0.009118
      dxy     :     0.005644
  9 F s       :     3.713926  s :     3.713926
      pz      :     1.539280  p :     5.367117
      px      :     1.937493
      py      :     1.890345
      dz2     :     0.004698  d :     0.007262
      dxz     :     0.001170
      dyz     :     0.001345
      dx2y2   :     0.000040
      dxy     :     0.000010
 10 H s       :     0.847600  s :     0.847600
      pz      :     0.014046  p :     0.068620
      px      :     0.042913
      py      :     0.011661
 11 H s       :     0.841852  s :     0.841852
      pz      :     0.047433  p :     0.072197
      px      :     0.011373
      py      :     0.013392
 12 H s       :     0.828079  s :     0.828079
      pz      :     0.022478  p :     0.073572
      px      :     0.039511
      py      :     0.011583
 13 C s       :     2.858282  s :     2.858282
      pz      :     1.121892  p :     3.393691
      px      :     1.121523
      py      :     1.150277
      dz2     :     0.023222  d :     0.106867
      dxz     :     0.008643
      dyz     :     0.026331
      dx2y2   :     0.031259
      dxy     :     0.017411
 14 H s       :     0.927153  s :     0.927153
      pz      :     0.039488  p :     0.071775
      px      :     0.016679
      py      :     0.015607
 15 H s       :     0.927025  s :     0.927025
      pz      :     0.013651  p :     0.071794
      px      :     0.043419
      py      :     0.014724
 16 H s       :     0.927046  s :     0.927046
      pz      :     0.024105  p :     0.071777
      px      :     0.017440
      py      :     0.030232
 17 S s       :     5.613981  s :     5.613981
      pz      :     3.857796  p :    10.993465
      px      :     3.866194
      py      :     3.269475
      dz2     :     0.004828  d :     0.037132
      dxz     :     0.001280
      dyz     :     0.009479
      dx2y2   :     0.012831
      dxy     :     0.008714


                      *****************************
                      * MAYER POPULATION ANALYSIS *
                      *****************************

  NA   - Mulliken gross atomic population
  ZA   - Total nuclear charge
  QA   - Mulliken gross atomic charge
  VA   - Mayer's total valence
  BVA  - Mayer's bonded valence
  FA   - Mayer's free valence

  ATOM       NA         ZA         QA         VA         BVA        FA
  0 C      5.9835     6.0000     0.0165     4.2662     4.2662     0.0000
  1 N      7.1903     7.0000    -0.1903     2.7250     2.7250    -0.0000
  2 C      6.2869     6.0000    -0.2869     4.0321     4.0321    -0.0000
  3 C      6.3200     6.0000    -0.3200     4.4828     4.4828     0.0000
  4 C      5.4990     6.0000     0.5010     4.0851     4.0851    -0.0000
  5 C      6.1837     6.0000    -0.1837     3.4016     3.4016     0.0000
  6 N      7.0075     7.0000    -0.0075     4.0046     4.0046     0.0000
  7 O      8.1778     8.0000    -0.1778     2.1076     2.1076     0.0000
  8 O      8.1182     8.0000    -0.1182     2.1798     2.1798     0.0000
  9 F      9.1182     9.0000    -0.1182     0.9235     0.9235     0.0000
 10 H      0.7149     1.0000     0.2851     0.8733     0.8733    -0.0000
 11 H      0.7204     1.0000     0.2796     0.9074     0.9074     0.0000
 12 H      0.6797     1.0000     0.3203     0.8397     0.8397    -0.0000
 13 C      6.4082     6.0000    -0.4082     3.5651     3.5651     0.0000
 14 H      0.8735     1.0000     0.1265     0.9425     0.9425     0.0000
 15 H      0.8730     1.0000     0.1270     0.9424     0.9424     0.0000
 16 H      0.8730     1.0000     0.1270     0.9423     0.9423     0.0000
 17 S     16.9722    16.0000    -0.9722     0.5900     0.5900    -0.0000

  Mayer bond orders larger than 0.100000
B(  0-C ,  1-N ) :   1.3026 B(  0-C ,  2-C ) :   0.1741 B(  0-C ,  3-C ) :   0.1715 
B(  0-C ,  4-C ) :   0.2763 B(  0-C ,  5-C ) :   1.2140 B(  0-C ,  6-N ) :  -0.1837 
B(  0-C ,  7-O ) :   0.1067 B(  0-C ,  8-O ) :  -0.1061 B(  0-C ,  9-F ) :   1.3390 
B(  1-N ,  2-C ) :   1.1655 B(  1-N ,  5-C ) :   0.2008 B(  2-C ,  3-C ) :   1.6728 
B(  2-C ,  5-C ) :   0.1100 B(  2-C , 10-H ) :   0.8847 B(  3-C ,  4-C ) :   1.4278 
B(  3-C ,  5-C ) :   0.1116 B(  3-C ,  8-O ) :   0.1473 B(  3-C , 11-H ) :   0.8409 
B(  4-C ,  5-C ) :   1.5878 B(  4-C ,  8-O ) :   0.2310 B(  4-C ,  9-F ) :  -0.1231 
B(  4-C , 12-H ) :   0.7226 B(  5-C ,  6-N ) :   0.6588 B(  5-C ,  7-O ) :  -0.1212 
B(  5-C ,  8-O ) :  -0.1961 B(  5-C ,  9-F ) :  -0.3204 B(  5-C , 12-H ) :   0.1410 
B(  6-N ,  7-O ) :   1.8246 B(  6-N ,  8-O ) :   1.8461 B(  7-O ,  8-O ) :   0.2384 
B( 13-C , 14-H ) :   0.9809 B( 13-C , 15-H ) :   0.9817 B( 13-C , 16-H ) :   0.9822 
B( 13-C , 17-S ) :   0.6203 

-------
TIMINGS
-------

Total SCF time: 0 days 0 hours 0 min 12 sec 

Total time                  ....      12.863 sec
Sum of individual times     ....      12.106 sec  ( 94.1%)

Fock matrix formation       ....      10.466 sec  ( 81.4%)
  Split-RI-J                ....       0.633 sec  (  6.0% of F)
  Chain of spheres X        ....       7.651 sec  ( 73.1% of F)
  XC integration            ....       0.978 sec  (  9.3% of F)
    Basis function eval.    ....       0.115 sec  ( 11.8% of XC)
    Density eval.           ....       0.118 sec  ( 12.1% of XC)
    XC-Functional eval.     ....       0.034 sec  (  3.5% of XC)
    XC-Potential eval.      ....       0.089 sec  (  9.1% of XC)
Diagonalization             ....       0.027 sec  (  0.2%)
Density matrix formation    ....       0.009 sec  (  0.1%)
Population analysis         ....       0.056 sec  (  0.4%)
Initial guess               ....       0.041 sec  (  0.3%)
Orbital Transformation      ....       0.000 sec  (  0.0%)
Orbital Orthonormalization  ....       0.021 sec  (  0.2%)
DIIS solution               ....       0.011 sec  (  0.1%)
SOSCF solution              ....       0.061 sec  (  0.5%)
Grid generation             ....       1.435 sec  ( 11.2%)

Maximum memory used throughout the entire SCF-calculation: 68.0 MB

-------------------------   --------------------
FINAL SINGLE POINT ENERGY      -990.264076186137
-------------------------   --------------------

                                *** OPTIMIZATION RUN DONE ***

                            ***************************************
                            *     ORCA property calculations      *
                            ***************************************

                                    ---------------------
                                    Active property flags
                                    ---------------------
   (+) Dipole Moment


------------------------------------------------------------------------------
                       ORCA ELECTRIC PROPERTIES CALCULATION
------------------------------------------------------------------------------

Dipole Moment Calculation                       ... on
Quadrupole Moment Calculation                   ... off
Polarizability Calculation                      ... off
GBWName                                         ... structure_opt.gbw
Electron density                                ... structure_opt.scfp
The origin for moment calculation is the CENTER OF MASS  = (-2.312409, -3.022482  2.287968)

-------------
DIPOLE MOMENT
-------------
                                X             Y             Z
Electronic contribution:      4.29151      23.85055       9.58352
Nuclear contribution   :     -1.54017     -15.66425      -0.44237
                        -----------------------------------------
Total Dipole Moment    :      2.75134       8.18630       9.14115
                        -----------------------------------------
Magnitude (a.u.)       :     12.57561
Magnitude (Debye)      :     31.96465



--------------------
Rotational spectrum 
--------------------
 
Rotational constants in cm-1:     0.031946     0.005875     0.005474 
Rotational constants in MHz :   957.726687   176.125219   164.104412 

 Dipole components along the rotational axes: 
x,y,z [a.u.] :   -12.318749     1.501006     2.035016 
x,y,z [Debye]:   -31.311771     3.815253     5.172601 

 

Timings for individual modules:

Sum of individual times         ...     1247.084 sec (=  20.785 min)
GTO integral calculation        ...       81.486 sec (=   1.358 min)   6.5 %
SCF iterations                  ...      948.736 sec (=  15.812 min)  76.1 %
SCF Gradient evaluation         ...      215.580 sec (=   3.593 min)  17.3 %
Geometry relaxation             ...        1.282 sec (=   0.021 min)   0.1 %
                             ****ORCA TERMINATED NORMALLY****
TOTAL RUN TIME: 0 days 0 hours 22 minutes 19 seconds 577 msec
