
                                 *****************
                                 * O   R   C   A *
                                 *****************

                                            #,                                       
                                            ###                                      
                                            ####                                     
                                            #####                                    
                                            ######                                   
                                           ########,                                 
                                     ,,################,,,,,                         
                               ,,#################################,,                 
                          ,,##########################################,,             
                       ,#########################################, ''#####,          
                    ,#############################################,,   '####,        
                  ,##################################################,,,,####,       
                ,###########''''           ''''###############################       
              ,#####''   ,,,,##########,,,,          '''####'''          '####       
            ,##' ,,,,###########################,,,                        '##       
           ' ,,###''''                  '''############,,,                           
         ,,##''                                '''############,,,,        ,,,,,,###''
      ,#''                                            '''#######################'''  
     '                                                          ''''####''''         
             ,#######,   #######,   ,#######,      ##                                
            ,#'     '#,  ##    ##  ,#'     '#,    #''#        ######   ,####,        
            ##       ##  ##   ,#'  ##            #'  '#       #        #'  '#        
            ##       ##  #######   ##           ,######,      #####,   #    #        
            '#,     ,#'  ##    ##  '#,     ,#' ,#      #,         ##   #,  ,#        
             '#######'   ##     ##  '#######'  #'      '#     #####' # '####'        



                  #######################################################
                  #                        -***-                        #
                  #          Department of theory and spectroscopy      #
                  #    Directorship and core code : Frank Neese         #
                  #        Max Planck Institute fuer Kohlenforschung    #
                  #                Kaiser Wilhelm Platz 1               #
                  #                 D-45470 Muelheim/Ruhr               #
                  #                      Germany                        #
                  #                                                     #
                  #                  All rights reserved                #
                  #                        -***-                        #
                  #######################################################


                         Program Version 5.0.4 -  RELEASE  -


 With contributions from (in alphabetic order):
   Daniel Aravena         : Magnetic Suceptibility
   Michael Atanasov       : Ab Initio Ligand Field Theory (pilot matlab implementation)
   Alexander A. Auer      : GIAO ZORA, VPT2 properties, NMR spectrum
   Ute Becker             : Parallelization
   Giovanni Bistoni       : ED, misc. LED, open-shell LED, HFLD
   Martin Brehm           : Molecular dynamics
   Dmytro Bykov           : SCF Hessian
   Vijay G. Chilkuri      : MRCI spin determinant printing, contributions to CSF-ICE
   Dipayan Datta          : RHF DLPNO-CCSD density
   Achintya Kumar Dutta   : EOM-CC, STEOM-CC
   Dmitry Ganyushin       : Spin-Orbit,Spin-Spin,Magnetic field MRCI
   Miquel Garcia          : C-PCM and meta-GGA Hessian, CC/C-PCM, Gaussian charge scheme
   Yang Guo               : DLPNO-NEVPT2, F12-NEVPT2, CIM, IAO-localization
   Andreas Hansen         : Spin unrestricted coupled pair/coupled cluster methods
   Benjamin Helmich-Paris : MC-RPA, TRAH-SCF, COSX integrals
   Lee Huntington         : MR-EOM, pCC
   Robert Izsak           : Overlap fitted RIJCOSX, COSX-SCS-MP3, EOM
   Marcus Kettner         : VPT2
   Christian Kollmar      : KDIIS, OOCD, Brueckner-CCSD(T), CCSD density, CASPT2, CASPT2-K
   Simone Kossmann        : Meta GGA functionals, TD-DFT gradient, OOMP2, MP2 Hessian
   Martin Krupicka        : Initial AUTO-CI
   Lucas Lang             : DCDCAS
   Marvin Lechner         : AUTO-CI (C++ implementation), FIC-MRCC
   Dagmar Lenk            : GEPOL surface, SMD
   Dimitrios Liakos       : Extrapolation schemes; Compound Job, initial MDCI parallelization
   Dimitrios Manganas     : Further ROCIS development; embedding schemes
   Dimitrios Pantazis     : SARC Basis sets
   Anastasios Papadopoulos: AUTO-CI, single reference methods and gradients
   Taras Petrenko         : DFT Hessian,TD-DFT gradient, ASA, ECA, R-Raman, ABS, FL, XAS/XES, NRVS
   Peter Pinski           : DLPNO-MP2, DLPNO-MP2 Gradient
   Christoph Reimann      : Effective Core Potentials
   Marius Retegan         : Local ZFS, SOC
   Christoph Riplinger    : Optimizer, TS searches, QM/MM, DLPNO-CCSD(T), (RO)-DLPNO pert. Triples
   Tobias Risthaus        : Range-separated hybrids, TD-DFT gradient, RPA, STAB
   Michael Roemelt        : Original ROCIS implementation
   Masaaki Saitow         : Open-shell DLPNO-CCSD energy and density
   Barbara Sandhoefer     : DKH picture change effects
   Avijit Sen             : IP-ROCIS
   Kantharuban Sivalingam : CASSCF convergence, NEVPT2, FIC-MRCI
   Bernardo de Souza      : ESD, SOC TD-DFT
   Georgi Stoychev        : AutoAux, RI-MP2 NMR, DLPNO-MP2 response
   Willem Van den Heuvel  : Paramagnetic NMR
   Boris Wezisla          : Elementary symmetry handling
   Frank Wennmohs         : Technical directorship


 We gratefully acknowledge several colleagues who have allowed us to
 interface, adapt or use parts of their codes:
   Stefan Grimme, W. Hujo, H. Kruse, P. Pracht,  : VdW corrections, initial TS optimization,
                  C. Bannwarth, S. Ehlert          DFT functionals, gCP, sTDA/sTD-DF
   Ed Valeev, F. Pavosevic, A. Kumar             : LibInt (2-el integral package), F12 methods
   Garnet Chan, S. Sharma, J. Yang, R. Olivares  : DMRG
   Ulf Ekstrom                                   : XCFun DFT Library
   Mihaly Kallay                                 : mrcc  (arbitrary order and MRCC methods)
   Jiri Pittner, Ondrej Demel                    : Mk-CCSD
   Frank Weinhold                                : gennbo (NPA and NBO analysis)
   Christopher J. Cramer and Donald G. Truhlar   : smd solvation model
   Lars Goerigk                                  : TD-DFT with DH, B97 family of functionals
   V. Asgeirsson, H. Jonsson                     : NEB implementation
   FAccTs GmbH                                   : IRC, NEB, NEB-TS, DLPNO-Multilevel, CI-OPT
                                                   MM, QMMM, 2- and 3-layer-ONIOM, Crystal-QMMM,
                                                   LR-CPCM, SF, NACMEs, symmetry and pop. for TD-DFT,
                                                   nearIR, NL-DFT gradient (VV10), updates on ESD,
                                                   ML-optimized integration grids
   S Lehtola, MJT Oliveira, MAL Marques          : LibXC Library
   Liviu Ungur et al                             : ANISO software


 Your calculation uses the libint2 library for the computation of 2-el integrals
 For citations please refer to: http://libint.valeyev.net

 Your ORCA version has been built with support for libXC version: 5.1.0
 For citations please refer to: https://tddft.org/programs/libxc/

 This ORCA versions uses:
   CBLAS   interface :  Fast vector & matrix operations
   LAPACKE interface :  Fast linear algebra routines
   SCALAPACK package :  Parallel linear algebra routines
   Shared memory     :  Shared parallel matrices
   BLAS/LAPACK       :  OpenBLAS 0.3.15  USE64BITINT DYNAMIC_ARCH NO_AFFINITY SkylakeX SINGLE_THREADED
        Core in use  :  SkylakeX
   Copyright (c) 2011-2014, The OpenBLAS Project




***************************************
The coordinates will be read from file: reactants.xyz
***************************************


Your calculation utilizes the SMD solvation module
Please cite in your paper:
A.V. Marenich, C.J. Cramer, D.G. Truhlar J. Phys. Chem. B, 113, (2009), 6378 

XCFun DFT library Copyright 2009-2010 Ulf Ekstrom and contributors.
See http://admol.org/xcfun for more information.
This is free software; see the source code for copying conditions.
There is ABSOLUTELY NO WARRANTY; not even for MERCHANTABILITY or FITNESS FOR A PARTICULAR PURPOSE.
For details see the documentation.
Scientific users of this library should cite U. Ekstrom, L. Visscher, R. Bast, A. J. Thorvaldsen and K. Ruud;
J.Chem.Theor.Comp. 2010, DOI: 10.1021/ct100117s
XCFun Version 0.99 

================================================================================

----- Orbital basis set information -----
Your calculation utilizes the basis: 6-311++G**
   H, Li - Ne  : R. Krishnan, J. S. Binkley, R. Seeger and J. A. Pople, J. Chem. Phys. 72, 650 (1980).
   Na - Ar     : A. D. McLean and G. S. Chandler J. Chem. Phys. 72, 5639, (1980).
   K  - Ca     : J.-P. Blaudeau, M. P. McGrath, L. A. Curtiss and L. Radom, J. Chem. Phys. 107, 5016 (1997).
   Ga - Kr     : L. A. Curtiss, M. P. McGrath, J.-P. Blandeau, N. E. Davis, R. C. Binning and L. Radom, J. Chem. Phys. 103, 6104 (1995).
   Pol./Diff.
   H, Li - Cl  : T. Clark, J. Chandrasekhar and P. v. R. Schleyer, J. Comp. Chem. 4, 294 (1983).
   H - Ne      : M. J. Frisch, J. A. Pople and J. S. Binkley, J. Chem. Phys. 80, 3265 (1984).

----- AuxJ basis set information -----
Your calculation utilizes the auxiliary basis: def2/J
   F. Weigend, Phys. Chem. Chem. Phys. 8, 1057 (2006).

================================================================================
                                        WARNINGS
                       Please study these warnings very carefully!
================================================================================


WARNING: Geometry Optimization
  ===> : Switching off AutoStart
         For restart on a previous wavefunction, please use MOREAD

INFO   : the flag for use of the SHARK integral package has been found!

================================================================================
                                       INPUT FILE
================================================================================
NAME = structure_opt.inp
|  1> !wb97x 6-311++G** OPT CPCM(WATER)
|  2> %maxcore  3500
|  3> %pal
|  4> nprocs 24
|  5> end
|  6> %cpcm
|  7> smd true
|  8> SMDsolvent "water"
|  9> end
| 10> %geom
| 11> ConstrainFragments {1} end
| 12> ConstrainFragments {4} end
| 13> ConnectFragments
| 14> { 1 2 C 5 7 }
| 15> { 1 2 C 0 9 }
| 16> { 2 3 C 13 5 }
| 17> { 3 4 C 13 17 }
| 18> end
| 19> end
| 20> * XYZfile -1 1 reactants.xyz
| 21> %geom
| 22> Fragments
| 23> 1 {0:5} end
| 24> 2 {6:12} end
| 25> 3 {13:16} end
| 26> 4 {17} end
| 27> end
| 28> end
| 29> 
| 30>                          ****END OF INPUT****
================================================================================

                       *****************************
                       * Geometry Optimization Run *
                       *****************************

Geometry optimization settings:
Update method            Update   .... BFGS
Choice of coordinates    CoordSys .... Z-matrix Internals
Initial Hessian          InHess   .... Almoef's Model

Convergence Tolerances:
Energy Change            TolE     ....  5.0000e-06 Eh
Max. Gradient            TolMAXG  ....  3.0000e-04 Eh/bohr
RMS Gradient             TolRMSG  ....  1.0000e-04 Eh/bohr
Max. Displacement        TolMAXD  ....  4.0000e-03 bohr
RMS Displacement         TolRMSD  ....  2.0000e-03 bohr
Strict Convergence                ....  False
------------------------------------------------------------------------------
                        ORCA OPTIMIZATION COORDINATE SETUP
------------------------------------------------------------------------------

The optimization will be done in new redundant internal coordinates
Making redundant internal coordinates   ...  (new redundants) done
Evaluating the initial hessian          ...  (Almloef) done
Evaluating the coordinates              ...  done
Calculating the B-matrix                .... done
Calculating the G-matrix                .... done
Diagonalizing the G-matrix              .... done
Imposing constraints:
 Iter   0:  RMS(Cart)=    0.0000000000 RMS(Int)=    0.0000000000
CONVERGED
Small eigenvalue found = 1.095e-02
Small eigenvalue found = 2.929e-02
The first mode is                       ....   72
The number of degrees of freedom        ....   48
Storing new coordinates                 .... done

    -----------------------------------------------------------------
                    Redundant Internal Coordinates


    -----------------------------------------------------------------
         Definition                    Initial Value    Approx d2E/dq
    -----------------------------------------------------------------
      1. B(N   1,C   0)                  1.3611         0.622347   
      2. B(C   2,N   1)                  1.3582         0.628875   
      3. B(C   3,C   2)                  1.3949         0.613658   
      4. B(C   4,C   3)                  1.3934         0.616971   
      5. B(C   5,C   0)                  1.4122         0.575774   
      6. B(C   5,C   4)                  1.4061         0.588917   
      7. B(O   7,C   5)                  2.3435         0.016853 C 
      8. B(O   7,N   6)                  1.2480         0.844503   
      9. B(O   8,N   6)                  1.3769         0.525866   
     10. B(F   9,C   0)                  1.3500         0.602260 C 
     11. B(F   9,N   6)                  2.8678         0.002044   
     12. B(F   9,O   7)                  2.5821         0.005837   
     13. B(H  11,H  10)                  2.4818         0.000415   
     14. B(H  12,O   8)                  2.5152         0.001717   
     15. B(H  12,H  11)                  2.4663         0.000439   
     16. B(H  12,N   6)                  2.7029         0.000861   
     17. B(C  13,O   7)                  8.0940         0.000000 C 
     18. B(H  14,C  13)                  1.0947         0.353942   
     19. B(H  15,C  13)                  1.0931         0.355993   
     20. B(H  16,C  13)                  1.0933         0.355751   
     21. B(S  17,C  13)                  1.8029         0.369616 C 
     22. A(N   1,C   0,C   5)          120.1571         0.425830   
     23. A(N   1,C   0,F   9)          118.6704         0.424592 C 
     24. A(C   5,C   0,F   9)          121.1725         0.421471 C 
     25. A(C   0,N   1,C   2)          121.9524         0.429796   
     26. A(N   1,C   2,C   3)          120.0262         0.431531   
     27. A(C   2,C   3,C   4)          119.3498         0.432882   
     28. A(C   3,C   4,C   5)          120.4718         0.429694   
     29. A(C   0,C   5,O   7)           94.5313         0.237820 C 
     30. A(C   0,C   5,C   4)          118.0425         0.424407   
     31. A(C   4,C   5,O   7)          147.4261         0.238582 C 
     32. A(O   7,N   6,F   9)           64.2090         0.186619   
     33. A(O   8,N   6,H  12)           67.2752         0.152046   
     34. A(O   7,N   6,H  12)          174.2234         0.159181   
     35. A(F   9,N   6,H  12)          110.0144         0.106848   
     36. A(O   7,N   6,O   8)          118.5014         0.433822   
     37. A(N   6,O   7,F   9)           89.9947         0.212791   
     38. A(C   5,O   7,C  13)          139.3324         0.089556   
     39. A(C   5,O   7,N   6)           31.7456         0.248611 C 
     40. A(C   5,O   7,F   9)           58.2491         0.140475 C 
     41. A(N   6,O   7,C  13)          137.5864         0.090338 C 
     42. A(F   9,O   7,C  13)          104.4031         0.089432 C 
     43. A(N   6,O   8,H  12)           82.3972         0.162696   
     44. A(N   6,F   9,O   7)           25.7962         0.120482   
     45. A(C   0,F   9,O   7)           86.0471         0.203997 C 
     46. A(C   0,F   9,N   6)           60.2509         0.179684 C 
     47. A(H  10,H  11,H  12)          119.7063         0.095112   
     48. A(N   6,H  12,O   8)           30.3275         0.103999   
     49. A(N   6,H  12,H  11)          126.7169         0.097913   
     50. A(O   8,H  12,H  11)          157.0445         0.099419   
     51. A(H  14,C  13,H  16)          108.9247         0.289501   
     52. A(H  15,C  13,H  16)          109.0382         0.289763   
     53. A(O   7,C  13,S  17)           17.4389         0.090208   
     54. A(H  16,C  13,S  17)          109.8608         0.339542 C 
     55. A(O   7,C  13,H  15)           98.7280         0.089968 C 
     56. A(O   7,C  13,H  16)          102.7395         0.089968 C 
     57. A(H  14,C  13,S  17)          109.9758         0.339253 C 
     58. A(H  15,C  13,S  17)          110.0187         0.339581 C 
     59. A(O   7,C  13,H  14)          127.2014         0.089967 C 
     60. A(H  14,C  13,H  15)          108.9962         0.289532   
     61. D(C   2,N   1,C   0,C   5)     -0.1041         0.028432   
     62. D(C   2,N   1,C   0,F   9)    179.9112         0.028432 C 
     63. D(C   3,C   2,N   1,C   0)      0.1066         0.025783   
     64. D(C   4,C   3,C   2,N   1)     -0.0956         0.020965   
     65. D(C   5,C   4,C   3,C   2)      0.0854         0.021202   
     66. D(O   7,C   5,C   0,N   1)    179.9933         0.022761 C 
     67. D(O   7,C   5,C   4,C   3)   -179.9036         0.021656 C 
     68. D(O   7,C   5,C   0,F   9)     -0.0223         0.022761 C 
     69. D(C   4,C   5,C   0,N   1)      0.0896         0.022761   
     70. D(C   4,C   5,C   0,F   9)   -179.9260         0.022761 C 
     71. D(C   0,C   5,C   4,C   3)     -0.0818         0.021656   
     72. D(F   9,O   7,C   5,C   0)      0.0117         0.001519 C 
     73. D(F   9,O   7,C   5,C   4)    179.8539         0.001519 C 
     74. D(C  13,O   7,N   6,F   9)    111.6350         0.085936 C 
     75. D(C  13,O   7,C   5,C   0)     74.2632         0.001519   
     76. D(C  13,O   7,C   5,C   4)   -105.8946         0.001519   
     77. D(N   6,O   7,C   5,C   4)     -0.1099         0.001519 C 
     78. D(C  13,O   7,N   6,O   8)    -68.3719         0.085936 C 
     79. D(F   9,O   7,N   6,H  12)      0.1568         0.085936   
     80. D(C   5,O   7,N   6,O   8)   -179.9761         0.085936 C 
     81. D(C   5,O   7,N   6,H  12)      0.1876         0.085936 C 
     82. D(F   9,O   7,N   6,O   8)    179.9932         0.085936   
     83. D(C   5,O   7,N   6,F   9)      0.0308         0.085936 C 
     84. D(N   6,O   7,C   5,C   0)   -179.9521         0.001519 C 
     85. D(C  13,O   7,N   6,H  12)    111.7918         0.085936 C 
     86. D(H  12,O   8,N   6,O   7)   -179.9821         0.025649   
     87. D(O   7,F   9,N   6,H  12)   -179.9832         0.001500   
     88. D(N   6,F   9,C   0,C   5)      0.0236         0.032536 C 
     89. D(O   7,F   9,C   0,N   1)   -179.9952         0.032536 C 
     90. D(N   6,F   9,C   0,N   1)   -179.9918         0.032536 C 
     91. D(O   7,F   9,C   0,C   5)      0.0202         0.032536 C 
     92. D(C   0,F   9,N   6,O   7)   -179.9922         0.001500 C 
     93. D(O   7,F   9,O   8,H  12)   -179.9897         0.001500   
     94. D(N   6,F   9,O   7,C   5)     -0.0190         0.001503 C 
     95. D(N   6,F   9,O   7,C  13)   -139.6612         0.001503 C 
     96. D(C   0,F   9,O   7,N   6)      0.0068         0.001503 C 
     97. D(C   0,F   9,O   7,C   5)     -0.0123         0.001503 C 
     98. D(C   0,F   9,N   6,H  12)      0.0246         0.001500 C 
     99. D(C   0,F   9,O   7,C  13)   -139.6544         0.001503   
    100. D(C   0,F   9,O   8,H  12)      0.0232         0.001500 C 
    101. D(O   8,H  12,N   6,O   7)    179.8441         0.001501   
    102. D(N   6,H  12,H  11,H  10)      0.0466         0.001502   
    103. D(H  11,H  12,N   6,O   7)     -0.1748         0.001501   
    104. D(H  11,H  12,N   6,O   8)    179.9811         0.001501   
    105. D(H  11,H  12,N   6,F   9)     -0.0245         0.001501   
    106. D(O   8,H  12,N   6,F   9)    179.9943         0.001501   
    107. D(H  11,H  12,O   8,N   6)     -0.0388         0.001502   
    108. D(O   8,H  12,H  11,H  10)      0.0710         0.001502   
    109. D(H  14,C  13,O   7,N   6)   -122.7024         0.001500 C 
    110. D(S  17,C  13,O   7,F   9)     -6.5577         0.001500   
    111. D(H  14,C  13,O   7,C   5)    -74.0541         0.001500   
    112. D(H  15,C  13,O   7,N   6)    115.2932         0.001500 C 
    113. D(H  15,C  13,O   7,F   9)   -138.3886         0.001500 C 
    114. D(H  15,C  13,O   7,C   5)    163.9415         0.001500   
    115. D(H  16,C  13,O   7,N   6)      3.3888         0.001500 C 
    116. D(H  16,C  13,O   7,F   9)    109.7071         0.001500 C 
    117. D(H  16,C  13,O   7,C   5)     52.0371         0.001500   
    118. D(H  14,C  13,O   7,F   9)    -16.3841         0.001500 C 
    119. D(S  17,C  13,O   7,N   6)   -112.8759         0.001500   
    120. D(S  17,C  13,O   7,C   5)    -64.2277         0.001500   
    -----------------------------------------------------------------

Number of atoms                         .... 18
Number of degrees of freedom            .... 120

         *************************************************************
         *                GEOMETRY OPTIMIZATION CYCLE   1            *
         *************************************************************
---------------------------------
CARTESIAN COORDINATES (ANGSTROEM)
---------------------------------
  C      0.000000    0.000000    1.820000
  N      1.178000   -0.196000    2.473000
  C      1.255000   -0.207000    3.829000
  C      0.105000   -0.016000    4.595000
  C     -1.116000    0.187000    3.955000
  C     -1.192000    0.198000    2.551000
  N     -2.456000    0.409000    1.893000
  O     -2.541000    0.423000    0.648000
  O     -3.602000    0.600000    2.632000
  F      0.000000    0.000000    0.470000
  H      2.209000   -0.366000    4.313000
  H      0.163000   -0.026000    5.676000
  H     -2.005000    0.335000    4.557000
  C     -5.762000   -4.186000   -5.174000
  H     -5.241000   -4.640000   -6.023000
  H     -6.508000   -3.481000   -5.550000
  H     -6.268000   -4.972000   -4.607000
  S     -4.582000   -3.329000   -4.114000

----------------------------
CARTESIAN COORDINATES (A.U.)
----------------------------
  NO LB      ZA    FRAG     MASS         X           Y           Z
   0 C     6.0000    1    12.011    0.000000    0.000000    3.439302
   1 N     7.0000    1    14.007    2.226097   -0.370386    4.673293
   2 C     6.0000    1    12.011    2.371606   -0.391173    7.235761
   3 C     6.0000    1    12.011    0.198421   -0.030236    8.683292
   4 C     6.0000    1    12.011   -2.108934    0.353379    7.473867
   5 C     6.0000    1    12.011   -2.252554    0.374166    4.820691
   6 N     7.0000    2    14.007   -4.641167    0.772898    3.577252
   7 O     8.0000    2    15.999   -4.801794    0.799354    1.224543
   8 O     8.0000    2    15.999   -6.806794    1.133836    4.973759
   9 F     9.0000    2    18.998    0.000000    0.000000    0.888171
  10 H     1.0000    2     1.008    4.174405   -0.691640    8.150389
  11 H     1.0000    2     1.008    0.308025   -0.049133   10.726086
  12 H     1.0000    2     1.008   -3.788901    0.633058    8.611482
  13 C     6.0000    3    12.011  -10.888602   -7.910394   -9.777443
  14 H     1.0000    3     1.008   -9.904055   -8.768329  -11.381821
  15 H     1.0000    3     1.008  -12.298338   -6.578137  -10.487980
  16 H     1.0000    3     1.008  -11.844803   -9.395718   -8.705968
  17 S    16.0000    4    32.060   -8.658725   -6.290898   -7.774333

----------------------------------------------
CARTESIAN COORDINATES OF FRAGMENTS (ANGSTROEM)
----------------------------------------------

 FRAGMENT 1 
  C     0.000000    0.000000    1.820000
  N     1.178000   -0.196000    2.473000
  C     1.255000   -0.207000    3.829000
  C     0.105000   -0.016000    4.595000
  C    -1.116000    0.187000    3.955000
  C    -1.192000    0.198000    2.551000

 FRAGMENT 2 
  N    -2.456000    0.409000    1.893000
  O    -2.541000    0.423000    0.648000
  O    -3.602000    0.600000    2.632000
  F     0.000000    0.000000    0.470000
  H     2.209000   -0.366000    4.313000
  H     0.163000   -0.026000    5.676000
  H    -2.005000    0.335000    4.557000

 FRAGMENT 3 
  C    -5.762000   -4.186000   -5.174000
  H    -5.241000   -4.640000   -6.023000
  H    -6.508000   -3.481000   -5.550000
  H    -6.268000   -4.972000   -4.607000

 FRAGMENT 4 
  S    -4.582000   -3.329000   -4.114000

--------------------------------
INTERNAL COORDINATES (ANGSTROEM)
--------------------------------
 C      0   0   0     0.000000000000     0.00000000     0.00000000
 N      1   0   0     1.361069065110     0.00000000     0.00000000
 C      2   1   0     1.358228993948   121.95243626     0.00000000
 C      3   2   1     1.394896770374   120.02620694     0.10655554
 C      4   3   2     1.393431017309   119.34983770   359.90435571
 C      5   4   3     1.406098502951   120.47178172     0.08537773
 N      6   5   4     1.440548853736   120.30882193   180.03842131
 O      7   6   5     1.247976762604   121.13704526   179.93147861
 O      7   6   5     1.376923382037   120.36156660   359.90709941
 F      1   2   3     1.350000000000   118.67037638   179.91115691
 H      3   2   1     1.081504969938   119.86701156   179.98746005
 H      4   3   2     1.082601034546   120.19197482   179.89186186
 H      5   4   3     1.083803026384   118.91636700   180.02085854
 C      8   7   6     8.094035211191   137.58643874   111.60418579
 H     14   8   7     1.094695391422   127.20138582   237.29761707
 H     14   8   7     1.093122591478    98.72798500   115.29317368
 H     14   8   7     1.093307367578   102.73947966     3.38883288
 S     14   8   7     1.802900163625    17.43889454   247.12406569

---------------------------
INTERNAL COORDINATES (A.U.)
---------------------------
 C      0   0   0     0.000000000000     0.00000000     0.00000000
 N      1   0   0     2.572047782411     0.00000000     0.00000000
 C      2   1   0     2.566680825712   121.95243626     0.00000000
 C      3   2   1     2.635972881098   120.02620694     0.10655554
 C      4   3   2     2.633203009226   119.34983770   359.90435571
 C      5   4   3     2.657141087893   120.47178172     0.08537773
 N      6   5   4     2.722242816095   120.30882193   180.03842131
 O      7   6   5     2.358334302820   121.13704526   179.93147861
 O      7   6   5     2.602008099442   120.36156660   359.90709941
 F      1   2   3     2.551130280794   118.67037638   179.91115691
 H      3   2   1     2.043748205657   119.86701156   179.98746005
 H      4   3   2     2.045819467592   120.19197482   179.89186186
 H      5   4   3     2.048090902982   118.91636700   180.02085854
 C      8   7   6    15.295509867466   137.58643874   111.60418579
 H     14   8   7     2.068674489853   127.20138582   237.29761707
 H     14   8   7     2.065702328696    98.72798500   115.29317368
 H     14   8   7     2.066051504921   102.73947966     3.38883288
 S     14   8   7     3.406987556054    17.43889454   247.12406569

---------------------
BASIS SET INFORMATION
---------------------
There are 6 groups of distinct atoms

 Group   1 Type C   : 12s6p1d contracted to 5s4p1d pattern {63111/3111/1}
 Group   2 Type N   : 12s6p1d contracted to 5s4p1d pattern {63111/3111/1}
 Group   3 Type O   : 12s6p1d contracted to 5s4p1d pattern {63111/3111/1}
 Group   4 Type F   : 12s6p1d contracted to 5s4p1d pattern {63111/3111/1}
 Group   5 Type H   : 6s1p contracted to 4s1p pattern {3111/1}
 Group   6 Type S   : 14s10p1d contracted to 7s6p1d pattern {6311111/421111/1}

Atom   0C    basis set group =>   1
Atom   1N    basis set group =>   2
Atom   2C    basis set group =>   1
Atom   3C    basis set group =>   1
Atom   4C    basis set group =>   1
Atom   5C    basis set group =>   1
Atom   6N    basis set group =>   2
Atom   7O    basis set group =>   3
Atom   8O    basis set group =>   3
Atom   9F    basis set group =>   4
Atom  10H    basis set group =>   5
Atom  11H    basis set group =>   5
Atom  12H    basis set group =>   5
Atom  13C    basis set group =>   1
Atom  14H    basis set group =>   5
Atom  15H    basis set group =>   5
Atom  16H    basis set group =>   5
Atom  17S    basis set group =>   6
---------------------------------
AUXILIARY/J BASIS SET INFORMATION
---------------------------------
There are 6 groups of distinct atoms

 Group   1 Type C   : 12s5p4d2f1g contracted to 6s4p3d1f1g pattern {711111/2111/211/2/1}
 Group   2 Type N   : 12s5p4d2f1g contracted to 6s4p3d1f1g pattern {711111/2111/211/2/1}
 Group   3 Type O   : 12s5p4d2f1g contracted to 6s4p3d1f1g pattern {711111/2111/211/2/1}
 Group   4 Type F   : 12s5p4d2f1g contracted to 6s4p3d1f1g pattern {711111/2111/211/2/1}
 Group   5 Type H   : 5s2p1d contracted to 3s1p1d pattern {311/2/1}
 Group   6 Type S   : 14s5p5d2f1g contracted to 8s4p3d1f1g pattern {71111111/2111/311/2/1}

Atom   0C    basis set group =>   1
Atom   1N    basis set group =>   2
Atom   2C    basis set group =>   1
Atom   3C    basis set group =>   1
Atom   4C    basis set group =>   1
Atom   5C    basis set group =>   1
Atom   6N    basis set group =>   2
Atom   7O    basis set group =>   3
Atom   8O    basis set group =>   3
Atom   9F    basis set group =>   4
Atom  10H    basis set group =>   5
Atom  11H    basis set group =>   5
Atom  12H    basis set group =>   5
Atom  13C    basis set group =>   1
Atom  14H    basis set group =>   5
Atom  15H    basis set group =>   5
Atom  16H    basis set group =>   5
Atom  17S    basis set group =>   6


           ************************************************************
           *        Program running with 24 parallel MPI-processes    *
           *              working on a common directory               *
           ************************************************************
------------------------------------------------------------------------------
                           ORCA GTO INTEGRAL CALCULATION
                           -- RI-GTO INTEGRALS CHOSEN --
------------------------------------------------------------------------------
------------------------------------------------------------------------------
                   ___                                                        
                  /   \      - P O W E R E D   B Y -                         
                 /     \                                                     
                 |  |  |   _    _      __       _____    __    __             
                 |  |  |  | |  | |    /  \     |  _  \  |  |  /  |          
                  \  \/   | |  | |   /    \    | | | |  |  | /  /          
                 / \  \   | |__| |  /  /\  \   | |_| |  |  |/  /          
                |  |  |   |  __  | /  /__\  \  |    /   |      \           
                |  |  |   | |  | | |   __   |  |    \   |  |\   \          
                \     /   | |  | | |  |  |  |  | |\  \  |  | \   \       
                 \___/    |_|  |_| |__|  |__|  |_| \__\ |__|  \__/        
                                                                              
                      - O R C A' S   B I G   F R I E N D -                    
                                      &                                       
                       - I N T E G R A L  F E E D E R -                       
                                                                              
 v1 FN, 2020, v2 2021                                                         
------------------------------------------------------------------------------


Reading SHARK input file structure_opt.SHARKINP.tmp ... ok
----------------------
SHARK INTEGRAL PACKAGE
----------------------

Number of atoms                             ...     18
Number of basis functions                   ...    314
Number of shells                            ...    154
Maximum angular momentum                    ...      2
Integral batch strategy                     ... SHARK/LIBINT Hybrid
RI-J (if used) integral strategy            ... SPLIT-RIJ (Revised 2003 algorithm where possible)
Printlevel                                  ...      1
Contraction scheme used                     ... SEGMENTED contraction
Coulomb Range Separation                    ... NOT USED
Exchange Range Separation                   ... Long Range
   Mu parameter                             ...  0.300000
   Scaling (regular/separated)              ...  0.157706  0.842294
Finite Nucleus Model                        ... NOT USED
Auxiliary Coulomb fitting basis             ... AVAILABLE
   # of basis functions in Aux-J            ...    656
   # of shells in Aux-J                     ...    212
   Maximum angular momentum in Aux-J        ...      4
Auxiliary J/K fitting basis                 ... NOT available
Auxiliary Correlation fitting basis         ... NOT available
Auxiliary 'external' fitting basis          ... NOT available
Integral threshold                          ...     2.500000e-11
Primitive cut-off                           ...     2.500000e-12
Primitive pair pre-selection threshold      ...     2.500000e-12

Calculating pre-screening integrals         ... done (  0.0 sec) Dimension = 154
Organizing shell pair data                  ... done (  0.1 sec)
Shell pair information
Total number of shell pairs                 ...     11935
Shell pairs after pre-screening             ...      8533
Total number of primitive shell pairs       ...     38500
Primitive shell pairs kept                  ...     19689
          la=0 lb=0:   2596 shell pairs
          la=1 lb=0:   3511 shell pairs
          la=1 lb=1:   1219 shell pairs
          la=2 lb=0:    680 shell pairs
          la=2 lb=1:    475 shell pairs
          la=2 lb=2:     52 shell pairs

Calculating one electron integrals          ... done (  0.0 sec)
Calculating RI/J V-Matrix + Cholesky decomp.... done (  0.1 sec)
Calculating Nuclear repulsion               ... done (  0.0 sec) ENN=    658.357512417704 Eh

SHARK setup successfully completed in   0.7 seconds

Maximum memory used throughout the entire GTOINT-calculation: 17.3 MB


           ************************************************************
           *        Program running with 24 parallel MPI-processes    *
           *              working on a common directory               *
           ************************************************************
-------------------------------------------------------------------------------
                                 ORCA SCF
-------------------------------------------------------------------------------

------------
SCF SETTINGS
------------
Hamiltonian:
 Density Functional     Method          .... DFT(GTOs)
 Exchange Functional    Exchange        .... WB97X
 Correlation Functional Correlation     .... WB97X
 Gradients option       PostSCFGGA      .... off
 Hybrid DFT is turned on
   Fraction HF Exchange ScalHFX         ....  0.157706
   Scaling of DF-GGA-X  ScalDFX         ....  0.000000
   Scaling of DF-GGA-C  ScalDFC         ....  1.000000
   Scaling of DF-LDA-C  ScalLDAC        ....  1.000000
   Perturbative correction              ....  0.000000
   Density functional embedding theory  .... OFF
 Long-range corrected/Screened/Range-Separated Hybrid DFT is turned on
   Amount of maximum screened exact exchange              ....  0.842294
   Range separation parameter mu (erf(mu*r12)/r12)        ....  0.300000
 RI-approximation to the Coulomb term is turned on
   Number of AuxJ basis functions       .... 656
   RIJ-COSX (HFX calculated with COS-X)).... on


General Settings:
 Integral files         IntName         .... structure_opt
 Hartree-Fock type      HFTyp           .... RHF
 Total Charge           Charge          ....   -1
 Multiplicity           Mult            ....    1
 Number of Electrons    NEL             ....   98
 Basis Dimension        Dim             ....  314
 Nuclear Repulsion      ENuc            ....    658.3575124177 Eh

Convergence Acceleration:
 DIIS                   CNVDIIS         .... on
   Start iteration      DIISMaxIt       ....    12
   Startup error        DIISStart       ....  0.200000
   # of expansion vecs  DIISMaxEq       ....     5
   Bias factor          DIISBfac        ....   1.050
   Max. coefficient     DIISMaxC        ....  10.000
 Trust-Rad. Augm. Hess. CNVTRAH         .... auto
   Auto Start mean grad. ratio tolernc. ....  1.125000
   Auto Start start iteration           ....    20
   Auto Start num. interpolation iter.  ....    10
   Max. Number of Micro iterations      ....    16
   Max. Number of Macro iterations      .... Maxiter - #DIIS iter
   Number of Davidson start vectors     ....     2
   Converg. threshold I  (grad. norm)   ....   1.000e-05
   Converg. threshold II (energy diff.) ....   1.000e-08
   Grad. Scal. Fac. for Micro threshold ....   0.100
   Minimum threshold for Micro iter.    ....   0.010
   NR start threshold (gradient norm)   ....   0.001
   Initial trust radius                 ....   0.400
   Minimum AH scaling param. (alpha)    ....   1.000
   Maximum AH scaling param. (alpha)    .... 1000.000
   Orbital update algorithm             .... Taylor
   White noise on init. David. guess    .... on
   Maximum white noise                  ....   0.010
   Quad. conv. algorithm                .... NR
 SOSCF                  CNVSOSCF        .... on
   Start iteration      SOSCFMaxIt      ....   150
   Startup grad/error   SOSCFStart      ....  0.003300
 Level Shifting         CNVShift        .... on
   Level shift para.    LevelShift      ....    0.2500
   Turn off err/grad.   ShiftErr        ....    0.0010
 Zerner damping         CNVZerner       .... off
 Static damping         CNVDamp         .... on
   Fraction old density DampFac         ....    0.7000
   Max. Damping (<1)    DampMax         ....    0.9800
   Min. Damping (>=0)   DampMin         ....    0.0000
   Turn off err/grad.   DampErr         ....    0.1000
 Fernandez-Rico         CNVRico         .... off

SCF Procedure:
 Maximum # iterations   MaxIter         ....   125
 SCF integral mode      SCFMode         .... Direct
   Integral package                     .... SHARK and LIBINT hybrid scheme
 Reset frequency        DirectResetFreq ....    20
 Integral Threshold     Thresh          ....  2.500e-11 Eh
 Primitive CutOff       TCut            ....  2.500e-12 Eh

Convergence Tolerance:
 Convergence Check Mode ConvCheckMode   .... Total+1el-Energy
 Convergence forced     ConvForced      .... 0
 Energy Change          TolE            ....  1.000e-08 Eh
 1-El. energy change                    ....  1.000e-05 Eh
 Orbital Gradient       TolG            ....  1.000e-05
 Orbital Rotation angle TolX            ....  1.000e-05
 DIIS Error             TolErr          ....  5.000e-07


Diagonalization of the overlap matrix:
Smallest eigenvalue                        ... 4.293e-06
Time for diagonalization                   ...    0.015 sec
Threshold for overlap eigenvalues          ... 1.000e-08
Number of eigenvalues below threshold      ... 0
Time for construction of square roots      ...    0.107 sec
Total time needed                          ...    0.124 sec

Time for model grid setup =    0.336 sec

------------------------------
INITIAL GUESS: MODEL POTENTIAL
------------------------------
Loading Hartree-Fock densities                     ... done
Calculating cut-offs                               ... done
Initializing the effective Hamiltonian             ... done
Setting up the integral package (SHARK)            ... done
Starting the Coulomb interaction                   ... done (   0.3 sec)
Reading the grid                                   ... done
Mapping shells                                     ... done
Starting the XC term evaluation                    ... done (   0.0 sec)
  promolecular density results
     # of electrons  =     96.995288054
     EX              =    -96.552209570
     EC              =     -3.327191224
     EX+EC           =    -99.879400793
Transforming the Hamiltonian                       ... done (   0.0 sec)
Diagonalizing the Hamiltonian                      ... done (   0.0 sec)
Back transforming the eigenvectors                 ... done (   0.0 sec)
Now organizing SCF variables                       ... done
                      ------------------
                      INITIAL GUESS DONE (   0.7 sec)
                      ------------------
-------------------
DFT GRID GENERATION
-------------------

General Integration Accuracy     IntAcc      ... 4.388
Radial Grid Type                 RadialGrid  ... OptM3 with GC (2021)
Angular Grid (max. ang.)         AngularGrid ... 4 (Lebedev-302)
Angular grid pruning method      GridPruning ... 4 (adaptive)
Weight generation scheme         WeightScheme... Becke
Basis function cutoff            BFCut       ... 1.0000e-11
Integration weight cutoff        WCut        ... 1.0000e-14
Angular grids for H and He will be reduced by one unit
Partially contracted basis set               ... off
Rotationally invariant grid construction     ... off

Total number of grid points                  ...    98175
Total number of batches                      ...     1543
Average number of points per batch           ...       63
Average number of grid points per atom       ...     5454
Time for grid setup =    0.634 sec

--------------------
COSX GRID GENERATION
--------------------

GRIDX 1
-------
General Integration Accuracy     IntAcc      ... 3.816
Radial Grid Type                 RadialGrid  ... OptM3 with GC (2021)
Angular Grid (max. ang.)         AngularGrid ... 1 (Lebedev-50)
Angular grid pruning method      GridPruning ... 4 (adaptive)
Weight generation scheme         WeightScheme... Becke
Basis function cutoff            BFCut       ... 1.0000e-11
Integration weight cutoff        WCut        ... 1.0000e-14
Angular grids for H and He will be reduced by one unit
Partially contracted basis set               ... on
Rotationally invariant grid construction     ... off

Total number of grid points                  ...    12267
Total number of batches                      ...      203
Average number of points per batch           ...       60
Average number of grid points per atom       ...      682
UseSFitting                                  ... on

GRIDX 2
-------
General Integration Accuracy     IntAcc      ... 4.020
Radial Grid Type                 RadialGrid  ... OptM3 with GC (2021)
Angular Grid (max. ang.)         AngularGrid ... 2 (Lebedev-110)
Angular grid pruning method      GridPruning ... 4 (adaptive)
Weight generation scheme         WeightScheme... Becke
Basis function cutoff            BFCut       ... 1.0000e-11
Integration weight cutoff        WCut        ... 1.0000e-14
Angular grids for H and He will be reduced by one unit
Partially contracted basis set               ... on
Rotationally invariant grid construction     ... off

Total number of grid points                  ...    31208
Total number of batches                      ...      493
Average number of points per batch           ...       63
Average number of grid points per atom       ...     1734
UseSFitting                                  ... on

GRIDX 3
-------
General Integration Accuracy     IntAcc      ... 4.338
Radial Grid Type                 RadialGrid  ... OptM3 with GC (2021)
Angular Grid (max. ang.)         AngularGrid ... 3 (Lebedev-194)
Angular grid pruning method      GridPruning ... 4 (adaptive)
Weight generation scheme         WeightScheme... Becke
Basis function cutoff            BFCut       ... 1.0000e-11
Integration weight cutoff        WCut        ... 1.0000e-14
Angular grids for H and He will be reduced by one unit
Partially contracted basis set               ... on
Rotationally invariant grid construction     ... off

Total number of grid points                  ...    69396
Total number of batches                      ...     1092
Average number of points per batch           ...       63
Average number of grid points per atom       ...     3855
UseSFitting                                  ... on

Time for X-Grid setup             =    1.197 sec


--------------------
CPCM SOLVATION MODEL
--------------------
CPCM parameters:
  Epsilon                                         ...      78.3550
  Refrac                                          ...       1.3328
  Rsolv                                           ...       1.3000
  Surface type                                    ... GAUSSIAN VDW
  Epsilon function type                           ...         CPCM
Solvent:                                     ... WATER
SMD-CDS solvent descriptors:
  Soln                                       ...    1.3328
  Soln25                                     ...    1.3323
  Sola                                       ...    0.0000
  Solb                                       ...    0.0000
  Solg                                       ...    0.0000
  Solc                                       ...    0.0000
  Solh                                       ...    0.0000
Radii:
 Radius for C  used is    3.4960 Bohr (=   1.8500 Ang.)
 Radius for N  used is    3.5716 Bohr (=   1.8900 Ang.)
 Radius for O  used is    2.8724 Bohr (=   1.5200 Ang.)
 Radius for F  used is    3.2692 Bohr (=   1.7300 Ang.)
 Radius for H  used is    2.2677 Bohr (=   1.2000 Ang.)
 Radius for S  used is    4.7054 Bohr (=   2.4900 Ang.)
Calculating surface                               ...        done! (  0.0s)
GEPOL surface points                              ...         1157
GEPOL Volume                                      ...    1375.2099
GEPOL Surface-area                                ...     850.8240
Calculating surface distance matrix               ...        done! (  0.0s)
Performing Cholesky decomposition & store         ...        done! (  0.1s)
Overall time for CPCM initialization              ...                 0.1s
--------------
SCF ITERATIONS
--------------
ITER       Energy         Delta-E        Max-DP      RMS-DP      [F,P]     Damp
               ***  Starting incremental Fock matrix formation  ***
  0   -989.8659868973   0.000000000000 0.33069186  0.00317435  0.2373526 0.7000
  1   -990.0281602533  -0.162173355919 0.27622193  0.00252437  0.1094831 0.7000
                               ***Turning on DIIS***
  2   -990.1005734060  -0.072413152728 1.67824427  0.00949997  0.0533628 0.0000
  3   -990.2245700224  -0.123996616370 0.77754164  0.00405330  0.0550215 0.0000
  4   -990.2437014601  -0.019131437760 0.26811496  0.00141166  0.0124303 0.0000
  5   -990.2448738689  -0.001172408747 0.13821954  0.00074476  0.0061283 0.0000
                      *** Initiating the SOSCF procedure ***
                           *** Shutting down DIIS ***
                      *** Re-Reading the Fockian *** 
                      *** Removing any level shift *** 
ITER      Energy       Delta-E        Grad      Rot      Max-DP    RMS-DP
  6   -990.24510410  -0.0002302359  0.001494  0.001494  0.041191  0.000243
               *** Restarting incremental Fock matrix formation ***
  7   -990.24519095  -0.0000868474  0.000978  0.002402  0.011699  0.000193
  8   -990.24523138  -0.0000404285  0.000389  0.002884  0.007865  0.000166
  9   -990.24523751  -0.0000061303  0.000695  0.000731  0.006989  0.000094
 10   -990.24524456  -0.0000070446  0.000114  0.000220  0.001591  0.000022
 11   -990.24524461  -0.0000000585  0.000092  0.000126  0.003945  0.000021
 12   -990.24524498  -0.0000003683  0.000014  0.000040  0.002443  0.000018
 13   -990.24524499  -0.0000000057  0.000007  0.000031  0.007571  0.000045
 14   -990.24524499  -0.0000000050  0.000005  0.000013  0.004365  0.000028
                  ***Gradient check signals convergence***
              ***Rediagonalizing the Fockian in SOSCF/NRSCF***

               *****************************************************
               *                     SUCCESS                       *
               *           SCF CONVERGED AFTER  15 CYCLES          *
               *****************************************************

Old exchange energy                            =    -28.432724840 Eh
New exchange energy                            =    -28.432741483 Eh
Exchange energy change after final integration =     -0.000016644 Eh
Total energy after final integration           =   -990.245261642 Eh
Final COS-X integration done in                =     3.331 sec

SMD CDS free energy correction energy :                 5.87289     Kcal/mol
Total Energy after SMD CDS correction =              -990.235902597 Eh

----------------
TOTAL SCF ENERGY
----------------

Total Energy       :         -990.23590260 Eh          -26945.68880 eV

Components:
Nuclear Repulsion  :          658.35751242 Eh           17914.81868 eV
Electronic Energy  :        -1648.59341501 Eh          -44860.50749 eV
One Electron Energy:        -2675.43850292 Eh          -72802.38287 eV
Two Electron Energy:         1026.84508790 Eh           27941.87538 eV
Max COSX asymmetry :            0.00000237 Eh               0.00006 eV
CPCM Dielectric    :           -0.14004901 Eh              -3.81093 eV
SMD CDS (Gcds)     :            0.00935904 Eh               0.25467 eV

Virial components:
Potential Energy   :        -1977.46859878 Eh          -53809.65620 eV
Kinetic Energy     :          987.23269619 Eh           26863.96740 eV
Virial Ratio       :            2.00304205


DFT components:
N(Alpha)           :       48.999614094096 electrons
N(Beta)            :       48.999614094096 electrons
N(Total)           :       97.999228188191 electrons
E(XC)              :      -73.338170731933 Eh       
DFET-embed. en.    :        0.000000000000 Eh       
CPCM Solvation Model Properties:
Surface-charge          :            0.94434117
Charge-correction       :           -0.00535746 Eh              -0.14578 eV
Free-energy (cav+disp)  :            0.00935904 Eh               0.25467 eV

---------------
SCF CONVERGENCE
---------------

  Last Energy change         ...   -5.1200e-09  Tolerance :   1.0000e-08
  Last MAX-Density change    ...    3.1086e-15  Tolerance :   1.0000e-07
  Last RMS-Density change    ...    4.3118e-17  Tolerance :   5.0000e-09
  Last Orbital Gradient      ...    1.9324e-06  Tolerance :   1.0000e-05
  Last Orbital Rotation      ...    1.8648e-06  Tolerance :   1.0000e-05

             **** THE GBW FILE WAS UPDATED (structure_opt.gbw) ****
             **** DENSITY structure_opt.scfp WAS UPDATED ****
             **** ENERGY FILE WAS UPDATED (structure_opt.en.tmp) ****
             **** THE GBW FILE WAS UPDATED (structure_opt.gbw) ****
             **** DENSITY structure_opt.scfp WAS UPDATED ****
----------------
ORBITAL ENERGIES
----------------

  NO   OCC          E(Eh)            E(eV) 
   0   2.0000     -88.720019     -2414.1944 
   1   2.0000     -24.793450      -674.6641 
   2   2.0000     -19.275684      -524.5180 
   3   2.0000     -19.243977      -523.6552 
   4   2.0000     -14.669894      -399.1881 
   5   2.0000     -14.435763      -392.8171 
   6   2.0000     -10.437868      -284.0288 
   7   2.0000     -10.364328      -282.0277 
   8   2.0000     -10.338420      -281.3227 
   9   2.0000     -10.321385      -280.8592 
  10   2.0000     -10.290725      -280.0249 
  11   2.0000     -10.235959      -278.5346 
  12   2.0000      -7.915911      -215.4029 
  13   2.0000      -5.879062      -159.9774 
  14   2.0000      -5.871661      -159.7760 
  15   2.0000      -5.871657      -159.7759 
  16   2.0000      -1.396483       -38.0002 
  17   2.0000      -1.348288       -36.6888 
  18   2.0000      -1.151552       -31.3353 
  19   2.0000      -1.109477       -30.1904 
  20   2.0000      -1.008568       -27.4445 
  21   2.0000      -0.943614       -25.6770 
  22   2.0000      -0.874164       -23.7872 
  23   2.0000      -0.836168       -22.7533 
  24   2.0000      -0.796847       -21.6833 
  25   2.0000      -0.769349       -20.9350 
  26   2.0000      -0.706129       -19.2147 
  27   2.0000      -0.686673       -18.6853 
  28   2.0000      -0.669540       -18.2191 
  29   2.0000      -0.665080       -18.0977 
  30   2.0000      -0.661818       -18.0090 
  31   2.0000      -0.633371       -17.2349 
  32   2.0000      -0.620483       -16.8842 
  33   2.0000      -0.615449       -16.7472 
  34   2.0000      -0.563968       -15.3464 
  35   2.0000      -0.537316       -14.6211 
  36   2.0000      -0.528142       -14.3715 
  37   2.0000      -0.528123       -14.3710 
  38   2.0000      -0.494447       -13.4546 
  39   2.0000      -0.494078       -13.4445 
  40   2.0000      -0.456151       -12.4125 
  41   2.0000      -0.432547       -11.7702 
  42   2.0000      -0.421722       -11.4756 
  43   2.0000      -0.416634       -11.3372 
  44   2.0000      -0.408240       -11.1088 
  45   2.0000      -0.390727       -10.6322 
  46   2.0000      -0.385133       -10.4800 
  47   2.0000      -0.258867        -7.0441 
  48   2.0000      -0.258834        -7.0432 
  49   0.0000      -0.064869        -1.7652 
  50   0.0000       0.022478         0.6117 
  51   0.0000       0.054742         1.4896 
  52   0.0000       0.055462         1.5092 
  53   0.0000       0.057189         1.5562 
  54   0.0000       0.067893         1.8475 
  55   0.0000       0.074032         2.0145 
  56   0.0000       0.086575         2.3558 
  57   0.0000       0.090530         2.4635 
  58   0.0000       0.090674         2.4674 
  59   0.0000       0.099594         2.7101 
  60   0.0000       0.113502         3.0885 
  61   0.0000       0.114913         3.1269 
  62   0.0000       0.126146         3.4326 
  63   0.0000       0.128754         3.5036 
  64   0.0000       0.129119         3.5135 
  65   0.0000       0.142076         3.8661 
  66   0.0000       0.145216         3.9515 
  67   0.0000       0.152478         4.1491 
  68   0.0000       0.159488         4.3399 
  69   0.0000       0.163637         4.4528 
  70   0.0000       0.169675         4.6171 
  71   0.0000       0.170794         4.6476 
  72   0.0000       0.174211         4.7405 
  73   0.0000       0.178176         4.8484 
  74   0.0000       0.181637         4.9426 
  75   0.0000       0.182349         4.9620 
  76   0.0000       0.191236         5.2038 
  77   0.0000       0.193006         5.2520 
  78   0.0000       0.196752         5.3539 
  79   0.0000       0.201182         5.4744 
  80   0.0000       0.206666         5.6237 
  81   0.0000       0.211295         5.7496 
  82   0.0000       0.220730         6.0064 
  83   0.0000       0.222290         6.0488 
  84   0.0000       0.233435         6.3521 
  85   0.0000       0.236540         6.4366 
  86   0.0000       0.248632         6.7656 
  87   0.0000       0.254603         6.9281 
  88   0.0000       0.259399         7.0586 
  89   0.0000       0.267647         7.2830 
  90   0.0000       0.271106         7.3772 
  91   0.0000       0.274782         7.4772 
  92   0.0000       0.278130         7.5683 
  93   0.0000       0.278517         7.5788 
  94   0.0000       0.285309         7.7636 
  95   0.0000       0.296158         8.0589 
  96   0.0000       0.304669         8.2905 
  97   0.0000       0.308489         8.3944 
  98   0.0000       0.312543         8.5047 
  99   0.0000       0.324642         8.8340 
 100   0.0000       0.327913         8.9230 
 101   0.0000       0.337818         9.1925 
 102   0.0000       0.349071         9.4987 
 103   0.0000       0.349726         9.5165 
 104   0.0000       0.360742         9.8163 
 105   0.0000       0.366357         9.9691 
 106   0.0000       0.370404        10.0792 
 107   0.0000       0.375540        10.2190 
 108   0.0000       0.396623        10.7927 
 109   0.0000       0.404489        11.0067 
 110   0.0000       0.408141        11.1061 
 111   0.0000       0.411287        11.1917 
 112   0.0000       0.420250        11.4356 
 113   0.0000       0.427822        11.6416 
 114   0.0000       0.437945        11.9171 
 115   0.0000       0.450908        12.2698 
 116   0.0000       0.453547        12.3416 
 117   0.0000       0.456459        12.4209 
 118   0.0000       0.470904        12.8139 
 119   0.0000       0.477384        12.9903 
 120   0.0000       0.491274        13.3682 
 121   0.0000       0.507360        13.8060 
 122   0.0000       0.519178        14.1276 
 123   0.0000       0.527525        14.3547 
 124   0.0000       0.528147        14.3716 
 125   0.0000       0.550548        14.9812 
 126   0.0000       0.585216        15.9245 
 127   0.0000       0.609824        16.5941 
 128   0.0000       0.612740        16.6735 
 129   0.0000       0.618652        16.8344 
 130   0.0000       0.626730        17.0542 
 131   0.0000       0.639006        17.3882 
 132   0.0000       0.648972        17.6594 
 133   0.0000       0.657729        17.8977 
 134   0.0000       0.668256        18.1842 
 135   0.0000       0.700417        19.0593 
 136   0.0000       0.701368        19.0852 
 137   0.0000       0.726966        19.7818 
 138   0.0000       0.743822        20.2404 
 139   0.0000       0.770395        20.9635 
 140   0.0000       0.770841        20.9756 
 141   0.0000       0.779320        21.2064 
 142   0.0000       0.811582        22.0843 
 143   0.0000       0.826229        22.4828 
 144   0.0000       0.836239        22.7552 
 145   0.0000       0.848893        23.0996 
 146   0.0000       0.850889        23.1539 
 147   0.0000       0.870068        23.6757 
 148   0.0000       0.898585        24.4517 
 149   0.0000       0.909316        24.7437 
 150   0.0000       0.919122        25.0106 
 151   0.0000       0.933422        25.3997 
 152   0.0000       0.953498        25.9460 
 153   0.0000       0.953980        25.9591 
 154   0.0000       0.960090        26.1254 
 155   0.0000       0.972233        26.4558 
 156   0.0000       0.975696        26.5500 
 157   0.0000       0.982224        26.7277 
 158   0.0000       1.002281        27.2735 
 159   0.0000       1.004346        27.3296 
 160   0.0000       1.004369        27.3303 
 161   0.0000       1.035508        28.1776 
 162   0.0000       1.044623        28.4256 
 163   0.0000       1.061678        28.8897 
 164   0.0000       1.073934        29.2232 
 165   0.0000       1.079844        29.3840 
 166   0.0000       1.084416        29.5085 
 167   0.0000       1.141771        31.0692 
 168   0.0000       1.151163        31.3247 
 169   0.0000       1.151562        31.3356 
 170   0.0000       1.172817        31.9140 
 171   0.0000       1.187288        32.3077 
 172   0.0000       1.198612        32.6159 
 173   0.0000       1.210029        32.9266 
 174   0.0000       1.251828        34.0640 
 175   0.0000       1.262787        34.3622 
 176   0.0000       1.276885        34.7458 
 177   0.0000       1.278750        34.7966 
 178   0.0000       1.279459        34.8159 
 179   0.0000       1.292564        35.1724 
 180   0.0000       1.298416        35.3317 
 181   0.0000       1.357072        36.9278 
 182   0.0000       1.394008        37.9329 
 183   0.0000       1.405432        38.2438 
 184   0.0000       1.470680        40.0192 
 185   0.0000       1.506254        40.9873 
 186   0.0000       1.548889        42.1474 
 187   0.0000       1.586472        43.1701 
 188   0.0000       1.589389        43.2495 
 189   0.0000       1.589492        43.2523 
 190   0.0000       1.617225        44.0069 
 191   0.0000       1.631476        44.3947 
 192   0.0000       1.654931        45.0330 
 193   0.0000       1.656992        45.0891 
 194   0.0000       1.692343        46.0510 
 195   0.0000       1.692739        46.0618 
 196   0.0000       1.703876        46.3648 
 197   0.0000       1.715258        46.6745 
 198   0.0000       1.748701        47.5846 
 199   0.0000       1.764576        48.0166 
 200   0.0000       1.787307        48.6351 
 201   0.0000       1.809011        49.2257 
 202   0.0000       1.809345        49.2348 
 203   0.0000       1.813048        49.3356 
 204   0.0000       1.842951        50.1492 
 205   0.0000       1.843708        50.1699 
 206   0.0000       1.868907        50.8556 
 207   0.0000       1.911142        52.0048 
 208   0.0000       1.933775        52.6207 
 209   0.0000       1.947247        52.9873 
 210   0.0000       1.969362        53.5891 
 211   0.0000       1.971066        53.6354 
 212   0.0000       1.990591        54.1667 
 213   0.0000       2.011413        54.7333 
 214   0.0000       2.031794        55.2879 
 215   0.0000       2.044974        55.6466 
 216   0.0000       2.050528        55.7977 
 217   0.0000       2.110093        57.4185 
 218   0.0000       2.140385        58.2428 
 219   0.0000       2.147116        58.4260 
 220   0.0000       2.168298        59.0024 
 221   0.0000       2.172300        59.1113 
 222   0.0000       2.176117        59.2152 
 223   0.0000       2.205829        60.0237 
 224   0.0000       2.292537        62.3831 
 225   0.0000       2.323939        63.2376 
 226   0.0000       2.331952        63.4556 
 227   0.0000       2.332082        63.4592 
 228   0.0000       2.399017        65.2806 
 229   0.0000       2.429129        66.1000 
 230   0.0000       2.493734        67.8580 
 231   0.0000       2.563340        69.7520 
 232   0.0000       2.588069        70.4249 
 233   0.0000       2.595575        70.6292 
 234   0.0000       2.604089        70.8609 
 235   0.0000       2.627136        71.4880 
 236   0.0000       2.658296        72.3359 
 237   0.0000       2.660111        72.3853 
 238   0.0000       2.672696        72.7278 
 239   0.0000       2.673938        72.7616 
 240   0.0000       2.692199        73.2585 
 241   0.0000       2.766344        75.2761 
 242   0.0000       2.784851        75.7796 
 243   0.0000       2.828515        76.9678 
 244   0.0000       2.839696        77.2721 
 245   0.0000       2.858284        77.7779 
 246   0.0000       2.867295        78.0231 
 247   0.0000       2.882900        78.4477 
 248   0.0000       2.893633        78.7398 
 249   0.0000       2.901727        78.9600 
 250   0.0000       2.930868        79.7530 
 251   0.0000       2.937226        79.9260 
 252   0.0000       2.960051        80.5471 
 253   0.0000       2.976114        80.9842 
 254   0.0000       2.986485        81.2664 
 255   0.0000       3.001373        81.6715 
 256   0.0000       3.007589        81.8407 
 257   0.0000       3.097379        84.2840 
 258   0.0000       3.152780        85.7915 
 259   0.0000       3.188683        86.7685 
 260   0.0000       3.268420        88.9382 
 261   0.0000       3.307357        89.9978 
 262   0.0000       3.307924        90.0132 
 263   0.0000       3.338171        90.8362 
 264   0.0000       3.368174        91.6527 
 265   0.0000       3.454166        93.9926 
 266   0.0000       3.496729        95.1508 
 267   0.0000       3.558352        96.8277 
 268   0.0000       3.593059        97.7721 
 269   0.0000       3.680813       100.1600 
 270   0.0000       3.703736       100.7838 
 271   0.0000       3.753150       102.1284 
 272   0.0000       3.853285       104.8532 
 273   0.0000       3.884046       105.6903 
 274   0.0000       3.888239       105.8044 
 275   0.0000       3.890894       105.8766 
 276   0.0000       3.902918       106.2038 
 277   0.0000       3.924277       106.7850 
 278   0.0000       4.011159       109.1492 
 279   0.0000       4.059281       110.4587 
 280   0.0000       4.119791       112.1052 
 281   0.0000       4.143533       112.7513 
 282   0.0000       4.168985       113.4439 
 283   0.0000       4.405287       119.8739 
 284   0.0000       4.477620       121.8422 
 285   0.0000       4.504751       122.5805 
 286   0.0000       4.762233       129.5870 
 287   0.0000       4.943250       134.5127 
 288   0.0000       5.076415       138.1363 
 289   0.0000       5.104251       138.8937 
 290   0.0000       5.192294       141.2895 
 291   0.0000       5.219443       142.0283 
 292   0.0000       5.314452       144.6136 
 293   0.0000       5.698501       155.0641 
 294   0.0000       6.130361       166.8156 
 295   0.0000       6.407466       174.3560 
 296   0.0000       6.538829       177.9306 
 297   0.0000       6.842899       186.2047 
 298   0.0000       7.977097       217.0679 
 299   0.0000      17.545019       477.4242 
 300   0.0000      17.546255       477.4579 
 301   0.0000      17.632871       479.8148 
 302   0.0000      23.648805       643.5167 
 303   0.0000      23.890134       650.0836 
 304   0.0000      23.983856       652.6339 
 305   0.0000      24.029162       653.8667 
 306   0.0000      24.070891       655.0022 
 307   0.0000      24.181018       657.9990 
 308   0.0000      35.375313       962.6112 
 309   0.0000      35.656790       970.2706 
 310   0.0000      49.899850      1357.8440 
 311   0.0000      49.964629      1359.6067 
 312   0.0000      66.792522      1817.5169 
 313   0.0000     188.965996      5142.0262 

--------------------
FRAGMENT INFORMATION
--------------------
Fragment  1:    0   1   2   3   4   5 
Fragment  2:    6   7   8   9  10  11  12 
Fragment  3:   13  14  15  16 
Fragment  4:   17 


                    ********************************
                    * MULLIKEN POPULATION ANALYSIS *
                    ********************************

-------------------------
MULLIKEN FRAGMENT CHARGES
-------------------------
 Fragment   0 :  -0.445702
 Fragment   1 :   0.445738
 Fragment   2 :  -0.028003
 Fragment   3 :  -0.972034
Sum of fragment charges:   -1.0000000

---------------------------------
MULLIKEN FRAGMENT OVERLAP CHARGES
---------------------------------
                  0          1          2          3    
      0      20.803771   0.631832  -0.000031  -0.000151
      1       0.631832  34.965794   0.000045   0.000467
      2      -0.000031   0.000045  11.655480  -0.694505
      3      -0.000151   0.000467  -0.694505  17.319129

-----------------------
MULLIKEN ATOMIC CHARGES
-----------------------
   0 C :   -0.021386
   1 N :   -0.205824
   2 C :   -0.291361
   3 C :   -0.268792
   4 C :    0.444920
   5 C :   -0.103259
   6 N :   -0.067511
   7 O :   -0.049868
   8 O :   -0.237788
   9 F :   -0.102924
  10 H :    0.296453
  11 H :    0.280871
  12 H :    0.326506
  13 C :   -0.408293
  14 H :    0.126049
  15 H :    0.127323
  16 H :    0.126919
  17 S :   -0.972034
Sum of atomic charges:   -1.0000000

--------------------------------
MULLIKEN REDUCED ORBITAL CHARGES
--------------------------------
  0 C s       :     3.264258  s :     3.264258
      pz      :     0.680150  p :     2.596664
      px      :     0.975137
      py      :     0.941377
      dz2     :     0.052755  d :     0.160464
      dxz     :     0.048848
      dyz     :     0.028447
      dx2y2   :     0.013770
      dxy     :     0.016645
  1 N s       :     3.625988  s :     3.625988
      pz      :     1.142967  p :     3.549310
      px      :     1.241749
      py      :     1.164594
      dz2     :     0.008166  d :     0.030527
      dxz     :     0.007239
      dyz     :     0.004758
      dx2y2   :     0.005505
      dxy     :     0.004859
  2 C s       :     3.373567  s :     3.373567
      pz      :     0.812389  p :     2.833646
      px      :     1.167964
      py      :     0.853293
      dz2     :     0.023580  d :     0.084148
      dxz     :     0.032196
      dyz     :     0.014803
      dx2y2   :     0.007221
      dxy     :     0.006348
  3 C s       :     3.218603  s :     3.218603
      pz      :     1.159163  p :     2.997027
      px      :     0.870608
      py      :     0.967255
      dz2     :     0.015295  d :     0.053162
      dxz     :     0.017413
      dyz     :     0.005092
      dx2y2   :     0.008213
      dxy     :     0.007149
  4 C s       :     2.498152  s :     2.498152
      pz      :     0.907059  p :     2.999835
      px      :     1.245892
      py      :     0.846884
      dz2     :     0.016546  d :     0.057092
      dxz     :     0.015857
      dyz     :     0.010569
      dx2y2   :     0.007215
      dxy     :     0.006905
  5 C s       :     3.301979  s :     3.301979
      pz      :     1.119449  p :     2.728136
      px      :     0.485298
      py      :     1.123390
      dz2     :     0.013629  d :     0.073144
      dxz     :     0.029767
      dyz     :     0.010339
      dx2y2   :     0.011214
      dxy     :     0.008194
  6 N s       :     3.589053  s :     3.589053
      pz      :     1.055087  p :     3.369468
      px      :     1.211398
      py      :     1.102983
      dz2     :     0.027716  d :     0.108990
      dxz     :     0.039369
      dyz     :     0.023075
      dx2y2   :     0.008550
      dxy     :     0.010281
  7 O s       :     3.777709  s :     3.777709
      pz      :     1.026007  p :     4.253454
      px      :     1.827784
      py      :     1.399662
      dz2     :     0.009712  d :     0.018705
      dxz     :     0.003515
      dyz     :     0.005309
      dx2y2   :     0.000102
      dxy     :     0.000067
  8 O s       :     3.824612  s :     3.824612
      pz      :     1.624433  p :     4.401061
      px      :     1.218139
      py      :     1.558488
      dz2     :     0.001058  d :     0.012115
      dxz     :     0.004900
      dyz     :     0.000879
      dx2y2   :     0.003118
      dxy     :     0.002160
  9 F s       :     3.918738  s :     3.918738
      pz      :     1.388937  p :     5.178853
      px      :     1.915734
      py      :     1.874181
      dz2     :     0.003097  d :     0.005333
      dxz     :     0.000998
      dyz     :     0.001202
      dx2y2   :     0.000027
      dxy     :     0.000009
 10 H s       :     0.679647  s :     0.679647
      pz      :     0.005481  p :     0.023900
      px      :     0.014121
      py      :     0.004298
 11 H s       :     0.694167  s :     0.694167
      pz      :     0.016372  p :     0.024962
      px      :     0.003654
      py      :     0.004935
 12 H s       :     0.647974  s :     0.647974
      pz      :     0.007741  p :     0.025520
      px      :     0.013378
      py      :     0.004401
 13 C s       :     3.267927  s :     3.267927
      pz      :     1.027629  p :     3.087733
      px      :     1.020850
      py      :     1.039254
      dz2     :     0.007409  d :     0.052633
      dxz     :     0.012703
      dyz     :     0.012613
      dx2y2   :     0.004972
      dxy     :     0.014937
 14 H s       :     0.851262  s :     0.851262
      pz      :     0.009952  p :     0.022689
      px      :     0.006557
      py      :     0.006179
 15 H s       :     0.849945  s :     0.849945
      pz      :     0.005728  p :     0.022733
      px      :     0.008778
      py      :     0.008227
 16 H s       :     0.850328  s :     0.850328
      pz      :     0.006967  p :     0.022754
      px      :     0.006578
      py      :     0.009208
 17 S s       :     6.023733  s :     6.023733
      pz      :     3.624420  p :    10.916874
      px      :     3.538681
      py      :     3.753773
      dz2     :     0.002957  d :     0.031427
      dxz     :     0.010835
      dyz     :     0.006510
      dx2y2   :     0.003251
      dxy     :     0.007874


                     *******************************
                     * LOEWDIN POPULATION ANALYSIS *
                     *******************************

------------------------
LOEWDIN FRAGMENT CHARGES
------------------------
 Fragment   0 :   0.057443
 Fragment   1 :  -0.057453
 Fragment   2 :  -0.355683
 Fragment   3 :  -0.644308

----------------------------
LOEWDIN FRAGMENT BOND ORDERS
----------------------------
                  0          1          2          3    
      0      56.961582   6.778684   0.000006   0.000048
      1       6.778684  43.787836   0.000021   0.000117
      2       0.000006   0.000021  15.419682   1.742750
      3       0.000048   0.000117   1.742750  16.644308

----------------------
LOEWDIN ATOMIC CHARGES
----------------------
   0 C :    0.111502
   1 N :   -0.111880
   2 C :    0.077276
   3 C :   -0.033848
   4 C :    0.078068
   5 C :   -0.063675
   6 N :    0.241370
   7 O :   -0.153564
   8 O :   -0.338913
   9 F :   -0.078085
  10 H :    0.087011
  11 H :    0.084547
  12 H :    0.100182
  13 C :   -0.359126
  14 H :    0.001263
  15 H :    0.001081
  16 H :    0.001100
  17 S :   -0.644308

-------------------------------
LOEWDIN REDUCED ORBITAL CHARGES
-------------------------------
  0 C s       :     2.743700  s :     2.743700
      pz      :     0.849368  p :     2.815675
      px      :     1.080481
      py      :     0.885826
      dz2     :     0.112512  d :     0.329124
      dxz     :     0.100723
      dyz     :     0.050395
      dx2y2   :     0.033874
      dxy     :     0.031619
  1 N s       :     3.151619  s :     3.151619
      pz      :     1.301215  p :     3.903423
      px      :     1.416910
      py      :     1.185297
      dz2     :     0.017388  d :     0.056839
      dxz     :     0.015718
      dyz     :     0.007791
      dx2y2   :     0.009543
      dxy     :     0.006398
  2 C s       :     2.786881  s :     2.786881
      pz      :     1.032888  p :     2.953998
      px      :     1.096533
      py      :     0.824577
      dz2     :     0.060303  d :     0.181845
      dxz     :     0.069056
      dyz     :     0.027983
      dx2y2   :     0.014015
      dxy     :     0.010488
  3 C s       :     2.781244  s :     2.781244
      pz      :     1.081331  p :     3.128243
      px      :     1.092139
      py      :     0.954773
      dz2     :     0.034120  d :     0.124361
      dxz     :     0.045069
      dyz     :     0.008010
      dx2y2   :     0.022212
      dxy     :     0.014951
  4 C s       :     2.779236  s :     2.779236
      pz      :     1.065834  p :     3.014402
      px      :     1.108244
      py      :     0.840324
      dz2     :     0.040903  d :     0.128294
      dxz     :     0.039166
      dyz     :     0.021251
      dx2y2   :     0.015050
      dxy     :     0.011923
  5 C s       :     2.757948  s :     2.757948
      pz      :     1.088458  p :     3.125401
      px      :     0.957303
      py      :     1.079640
      dz2     :     0.039912  d :     0.180326
      dxz     :     0.071775
      dyz     :     0.019831
      dx2y2   :     0.031418
      dxy     :     0.017390
  6 N s       :     3.052049  s :     3.052049
      pz      :     1.206019  p :     3.500219
      px      :     1.215003
      py      :     1.079196
      dz2     :     0.060433  d :     0.206362
      dxz     :     0.076205
      dyz     :     0.035693
      dx2y2   :     0.017515
      dxy     :     0.016517
  7 O s       :     3.581193  s :     3.581193
      pz      :     1.283646  p :     4.540051
      px      :     1.838774
      py      :     1.417631
      dz2     :     0.020440  d :     0.032320
      dxz     :     0.005158
      dyz     :     0.006532
      dx2y2   :     0.000119
      dxy     :     0.000071
  8 O s       :     3.667385  s :     3.667385
      pz      :     1.709897  p :     4.651045
      px      :     1.369831
      py      :     1.571318
      dz2     :     0.001545  d :     0.020483
      dxz     :     0.009264
      dyz     :     0.001172
      dx2y2   :     0.005712
      dxy     :     0.002790
  9 F s       :     3.714999  s :     3.714999
      pz      :     1.535129  p :     5.355715
      px      :     1.934342
      py      :     1.886243
      dz2     :     0.004767  d :     0.007371
      dxz     :     0.001184
      dyz     :     0.001375
      dx2y2   :     0.000037
      dxy     :     0.000009
 10 H s       :     0.842589  s :     0.842589
      pz      :     0.016676  p :     0.070400
      px      :     0.042294
      py      :     0.011430
 11 H s       :     0.843002  s :     0.843002
      pz      :     0.047833  p :     0.072451
      px      :     0.011210
      py      :     0.013407
 12 H s       :     0.826589  s :     0.826589
      pz      :     0.023098  p :     0.073230
      px      :     0.038716
      py      :     0.011416
 13 C s       :     2.858400  s :     2.858400
      pz      :     1.131583  p :     3.393796
      px      :     1.135128
      py      :     1.127086
      dz2     :     0.014299  d :     0.106929
      dxz     :     0.026810
      dyz     :     0.025697
      dx2y2   :     0.009437
      dxy     :     0.030686
 14 H s       :     0.927167  s :     0.927167
      pz      :     0.032310  p :     0.071570
      px      :     0.020112
      py      :     0.019148
 15 H s       :     0.927057  s :     0.927057
      pz      :     0.017794  p :     0.071863
      px      :     0.028544
      py      :     0.025525
 16 H s       :     0.927061  s :     0.927061
      pz      :     0.021363  p :     0.071839
      px      :     0.020889
      py      :     0.029588
 17 S s       :     5.613890  s :     5.613890
      pz      :     3.654132  p :    10.993270
      px      :     3.586911
      py      :     3.752227
      dz2     :     0.003305  d :     0.037147
      dxz     :     0.013007
      dyz     :     0.007755
      dx2y2   :     0.003686
      dxy     :     0.009395


                      *****************************
                      * MAYER POPULATION ANALYSIS *
                      *****************************

  NA   - Mulliken gross atomic population
  ZA   - Total nuclear charge
  QA   - Mulliken gross atomic charge
  VA   - Mayer's total valence
  BVA  - Mayer's bonded valence
  FA   - Mayer's free valence

  ATOM       NA         ZA         QA         VA         BVA        FA
  0 C      6.0214     6.0000    -0.0214     4.3429     4.3429     0.0000
  1 N      7.2058     7.0000    -0.2058     2.7039     2.7039    -0.0000
  2 C      6.2914     6.0000    -0.2914     3.9815     3.9815    -0.0000
  3 C      6.2688     6.0000    -0.2688     4.3598     4.3598    -0.0000
  4 C      5.5551     6.0000     0.4449     4.1399     4.1399    -0.0000
  5 C      6.1033     6.0000    -0.1033     3.3725     3.3725     0.0000
  6 N      7.0675     7.0000    -0.0675     3.9065     3.9065    -0.0000
  7 O      8.0499     8.0000    -0.0499     2.1946     2.1946    -0.0000
  8 O      8.2378     8.0000    -0.2378     1.9954     1.9954    -0.0000
  9 F      9.1029     9.0000    -0.1029     0.9619     0.9619     0.0000
 10 H      0.7035     1.0000     0.2965     0.8710     0.8710     0.0000
 11 H      0.7191     1.0000     0.2809     0.9041     0.9041    -0.0000
 12 H      0.6735     1.0000     0.3265     0.8331     0.8331    -0.0000
 13 C      6.4083     6.0000    -0.4083     3.5637     3.5637    -0.0000
 14 H      0.8740     1.0000     0.1260     0.9427     0.9427    -0.0000
 15 H      0.8727     1.0000     0.1273     0.9422     0.9422    -0.0000
 16 H      0.8731     1.0000     0.1269     0.9426     0.9426    -0.0000
 17 S     16.9720    16.0000    -0.9720     0.5897     0.5897    -0.0000

  Mayer bond orders larger than 0.100000
B(  0-C ,  1-N ) :   1.2990 B(  0-C ,  2-C ) :   0.1937 B(  0-C ,  3-C ) :   0.1509 
B(  0-C ,  4-C ) :   0.3130 B(  0-C ,  5-C ) :   1.2034 B(  0-C ,  6-N ) :  -0.1886 
B(  0-C ,  9-F ) :   1.3919 B(  1-N ,  2-C ) :   1.1816 B(  1-N ,  5-C ) :   0.1769 
B(  2-C ,  3-C ) :   1.5926 B(  2-C , 10-H ) :   0.8820 B(  3-C ,  4-C ) :   1.4812 
B(  3-C ,  8-O ) :   0.1341 B(  3-C , 11-H ) :   0.8428 B(  4-C ,  5-C ) :   1.5753 
[...]
 289   0.0000       5.127479       139.5258 
 290   0.0000       5.207510       141.7036 
 291   0.0000       5.281464       143.7159 
 292   0.0000       5.370300       146.1333 
 293   0.0000       5.848899       159.1566 
 294   0.0000       6.340590       172.5362 
 295   0.0000       6.416060       174.5899 
 296   0.0000       6.549589       178.2234 
 297   0.0000       6.864141       186.7828 
 298   0.0000       7.977119       217.0684 
 299   0.0000      17.545032       477.4246 
 300   0.0000      17.546281       477.4586 
 301   0.0000      17.632894       479.8154 
 302   0.0000      23.700596       644.9260 
 303   0.0000      23.954101       651.8242 
 304   0.0000      24.019894       653.6146 
 305   0.0000      24.029608       653.8789 
 306   0.0000      24.134253       656.7264 
 307   0.0000      24.245329       659.7489 
 308   0.0000      35.451439       964.6827 
 309   0.0000      35.736613       972.4427 
 310   0.0000      49.923669      1358.4921 
 311   0.0000      50.031818      1361.4350 
 312   0.0000      66.806358      1817.8934 
 313   0.0000     188.966012      5142.0266 

--------------------
FRAGMENT INFORMATION
--------------------
Fragment  1:    0   1   2   3   4   5 
Fragment  2:    6   7   8   9  10  11  12 
Fragment  3:   13  14  15  16 
Fragment  4:   17 


                    ********************************
                    * MULLIKEN POPULATION ANALYSIS *
                    ********************************

-------------------------
MULLIKEN FRAGMENT CHARGES
-------------------------
 Fragment   0 :  -0.482959
 Fragment   1 :   0.482999
 Fragment   2 :  -0.027971
 Fragment   3 :  -0.972069
Sum of fragment charges:   -1.0000000

---------------------------------
MULLIKEN FRAGMENT OVERLAP CHARGES
---------------------------------
                  0          1          2          3    
      0      18.187174   0.527497  -0.000026  -0.000154
      1       0.527497  35.033340   0.000043   0.000471
      2      -0.000026   0.000043  11.655488  -0.694346
      3      -0.000154   0.000471  -0.694346  17.319083

-----------------------
MULLIKEN ATOMIC CHARGES
-----------------------
   0 C :    0.013881
   1 N :   -0.197745
   2 C :   -0.275543
   3 C :   -0.343455
   4 C :    0.527688
   5 C :   -0.207785
   6 N :   -0.004603
   7 O :   -0.161127
   8 O :   -0.117042
   9 F :   -0.120327
  10 H :    0.284385
  11 H :    0.278204
  12 H :    0.323508
  13 C :   -0.408264
  14 H :    0.126306
  15 H :    0.127181
  16 H :    0.126806
  17 S :   -0.972069
Sum of atomic charges:   -1.0000000

--------------------------------
MULLIKEN REDUCED ORBITAL CHARGES
--------------------------------
  0 C s       :     3.221425  s :     3.221425
      pz      :     0.673912  p :     2.594761
      px      :     0.975000
      py      :     0.945849
      dz2     :     0.057115  d :     0.169932
      dxz     :     0.050449
      dyz     :     0.029390
      dx2y2   :     0.014641
      dxy     :     0.018338
  1 N s       :     3.605971  s :     3.605971
      pz      :     1.151754  p :     3.557270
      px      :     1.251364
      py      :     1.154152
      dz2     :     0.008746  d :     0.034505
      dxz     :     0.008599
      dyz     :     0.005245
      dx2y2   :     0.006086
      dxy     :     0.005828
  2 C s       :     3.311780  s :     3.311780
      pz      :     0.825938  p :     2.874811
      px      :     1.176600
      py      :     0.872273
      dz2     :     0.025144  d :     0.088952
      dxz     :     0.033502
      dyz     :     0.015910
      dx2y2   :     0.007885
      dxy     :     0.006511
  3 C s       :     3.273748  s :     3.273748
      pz      :     1.159166  p :     3.014067
      px      :     0.885350
      py      :     0.969551
      dz2     :     0.015894  d :     0.055641
      dxz     :     0.018395
      dyz     :     0.005657
      dx2y2   :     0.008174
      dxy     :     0.007520
  4 C s       :     2.378186  s :     2.378186
      pz      :     0.937219  p :     3.034462
      px      :     1.246817
      py      :     0.850427
      dz2     :     0.017195  d :     0.059664
      dxz     :     0.016137
      dyz     :     0.011301
      dx2y2   :     0.007808
      dxy     :     0.007222
  5 C s       :     3.356835  s :     3.356835
      pz      :     1.144458  p :     2.777378
      px      :     0.505606
      py      :     1.127315
      dz2     :     0.013175  d :     0.073571
      dxz     :     0.030859
      dyz     :     0.010313
      dx2y2   :     0.011060
      dxy     :     0.008165
  6 N s       :     3.487378  s :     3.487378
      pz      :     1.036700  p :     3.378341
      px      :     1.231941
      py      :     1.109700
      dz2     :     0.038154  d :     0.138884
      dxz     :     0.045060
      dyz     :     0.029105
      dx2y2   :     0.011924
      dxy     :     0.014641
  7 O s       :     3.803787  s :     3.803787
      pz      :     1.023216  p :     4.339165
      px      :     1.839079
      py      :     1.476870
      dz2     :     0.009751  d :     0.018175
      dxz     :     0.003264
      dyz     :     0.005001
      dx2y2   :     0.000096
      dxy     :     0.000063
  8 O s       :     3.784387  s :     3.784387
      pz      :     1.548196  p :     4.312517
      px      :     1.332137
      py      :     1.432183
      dz2     :     0.002431  d :     0.020138
      dxz     :     0.007426
      dyz     :     0.002091
      dx2y2   :     0.004188
      dxy     :     0.004003
  9 F s       :     3.917983  s :     3.917983
      pz      :     1.399299  p :     5.197114
      px      :     1.918462
      py      :     1.879352
      dz2     :     0.003046  d :     0.005230
      dxz     :     0.000973
      dyz     :     0.001171
      dx2y2   :     0.000030
      dxy     :     0.000010
 10 H s       :     0.692325  s :     0.692325
      pz      :     0.004497  p :     0.023290
      px      :     0.014461
      py      :     0.004332
 11 H s       :     0.696607  s :     0.696607
      pz      :     0.016405  p :     0.025189
      px      :     0.003793
      py      :     0.004991
 12 H s       :     0.650648  s :     0.650648
      pz      :     0.007442  p :     0.025844
      px      :     0.013971
      py      :     0.004432
 13 C s       :     3.267823  s :     3.267823
      pz      :     1.027602  p :     3.087806
      px      :     1.020948
      py      :     1.039256
      dz2     :     0.007404  d :     0.052635
      dxz     :     0.012735
      dyz     :     0.012605
      dx2y2   :     0.004951
      dxy     :     0.014939
 14 H s       :     0.850961  s :     0.850961
      pz      :     0.009956  p :     0.022733
      px      :     0.006581
      py      :     0.006196
 15 H s       :     0.850100  s :     0.850100
      pz      :     0.005729  p :     0.022718
      px      :     0.008760
      py      :     0.008229
 16 H s       :     0.850454  s :     0.850454
      pz      :     0.006954  p :     0.022740
      px      :     0.006584
      py      :     0.009202
 17 S s       :     6.023764  s :     6.023764
      pz      :     3.622699  p :    10.916879
      px      :     3.539819
      py      :     3.754361
      dz2     :     0.002965  d :     0.031426
      dxz     :     0.010854
      dyz     :     0.006524
      dx2y2   :     0.003240
      dxy     :     0.007844


                     *******************************
                     * LOEWDIN POPULATION ANALYSIS *
                     *******************************

------------------------
LOEWDIN FRAGMENT CHARGES
------------------------
 Fragment   0 :   0.031371
 Fragment   1 :  -0.031376
 Fragment   2 :  -0.355699
 Fragment   3 :  -0.644296

----------------------------
LOEWDIN FRAGMENT BOND ORDERS
----------------------------
                  0          1          2          3    
      0      57.200312   6.725381   0.000006   0.000047
      1       6.725381  44.209120   0.000021   0.000128
      2       0.000006   0.000021  15.419853   1.742717
      3       0.000047   0.000128   1.742717  16.644296

----------------------
LOEWDIN ATOMIC CHARGES
----------------------
   0 C :    0.082264
   1 N :   -0.081946
   2 C :    0.056348
   3 C :   -0.034104
   4 C :    0.073197
   5 C :   -0.064388
   6 N :    0.202676
   7 O :   -0.219315
   8 O :   -0.194314
   9 F :   -0.088879
  10 H :    0.083365
  11 H :    0.085636
  12 H :    0.099455
  13 C :   -0.359064
  14 H :    0.000986
  15 H :    0.001180
  16 H :    0.001198
  17 S :   -0.644296

-------------------------------
LOEWDIN REDUCED ORBITAL CHARGES
-------------------------------
  0 C s       :     2.731111  s :     2.731111
      pz      :     0.851647  p :     2.835995
      px      :     1.095648
      py      :     0.888699
      dz2     :     0.121733  d :     0.350630
      dxz     :     0.104082
      dyz     :     0.052099
      dx2y2   :     0.037201
      dxy     :     0.035516
  1 N s       :     3.109033  s :     3.109033
      pz      :     1.300646  p :     3.907966
      px      :     1.433477
      py      :     1.173843
      dz2     :     0.018994  d :     0.064947
      dxz     :     0.018338
      dyz     :     0.009092
      dx2y2   :     0.010702
      dxy     :     0.007821
  2 C s       :     2.774350  s :     2.774350
      pz      :     1.042616  p :     2.975599
      px      :     1.092295
      py      :     0.840687
      dz2     :     0.064273  d :     0.193703
      dxz     :     0.072909
      dyz     :     0.030630
      dx2y2   :     0.015167
      dxy     :     0.010724
  3 C s       :     2.772484  s :     2.772484
      pz      :     1.079568  p :     3.132132
      px      :     1.096634
      py      :     0.955931
      dz2     :     0.035214  d :     0.129488
      dxz     :     0.047237
      dyz     :     0.008802
      dx2y2   :     0.022375
      dxy     :     0.015859
  4 C s       :     2.769215  s :     2.769215
      pz      :     1.074693  p :     3.022796
      px      :     1.104982
      py      :     0.843121
      dz2     :     0.042535  d :     0.134792
      dxz     :     0.040578
      dyz     :     0.022850
      dx2y2   :     0.016212
      dxy     :     0.012618
  5 C s       :     2.753216  s :     2.753216
      pz      :     1.090421  p :     3.129169
      px      :     0.958694
      py      :     1.080054
      dz2     :     0.039645  d :     0.182003
      dxz     :     0.073987
      dyz     :     0.020056
      dx2y2   :     0.030905
      dxy     :     0.017409
  6 N s       :     2.997884  s :     2.997884
      pz      :     1.219782  p :     3.530717
      px      :     1.230325
      py      :     1.080610
      dz2     :     0.080788  d :     0.268724
      dxz     :     0.092468
      dyz     :     0.046009
      dx2y2   :     0.025574
      dxy     :     0.023885
  7 O s       :     3.574452  s :     3.574452
      pz      :     1.275319  p :     4.613225
      px      :     1.847308
      py      :     1.490599
      dz2     :     0.020462  d :     0.031638
      dxz     :     0.004832
      dyz     :     0.006160
      dx2y2   :     0.000117
      dxy     :     0.000067
  8 O s       :     3.548740  s :     3.548740
      pz      :     1.672622  p :     4.610302
      px      :     1.487756
      py      :     1.449924
      dz2     :     0.003692  d :     0.035271
      dxz     :     0.015318
      dyz     :     0.002846
      dx2y2   :     0.008163
      dxy     :     0.005252
  9 F s       :     3.713837  s :     3.713837
      pz      :     1.539814  p :     5.367787
      px      :     1.937215
      py      :     1.890758
      dz2     :     0.004690  d :     0.007256
      dxz     :     0.001171
      dyz     :     0.001345
      dx2y2   :     0.000040
      dxy     :     0.000010
 10 H s       :     0.848032  s :     0.848032
      pz      :     0.014075  p :     0.068602
      px      :     0.042824
      py      :     0.011703
 11 H s       :     0.842189  s :     0.842189
      pz      :     0.047384  p :     0.072175
      px      :     0.011382
      py      :     0.013410
 12 H s       :     0.827098  s :     0.827098
      pz      :     0.021861  p :     0.073447
      px      :     0.040130
      py      :     0.011455
 13 C s       :     2.858266  s :     2.858266
      pz      :     1.131789  p :     3.393858
      px      :     1.135071
      py      :     1.126998
      dz2     :     0.014294  d :     0.106940
      dxz     :     0.026877
      dyz     :     0.025690
      dx2y2   :     0.009390
      dxy     :     0.030689
 14 H s       :     0.927233  s :     0.927233
      pz      :     0.032354  p :     0.071781
      px      :     0.020212
      py      :     0.019215
 15 H s       :     0.927030  s :     0.927030
      pz      :     0.017800  p :     0.071789
      px      :     0.028473
      py      :     0.025517
 16 H s       :     0.927029  s :     0.927029
      pz      :     0.021310  p :     0.071773
      px      :     0.020902
      py      :     0.029561
 17 S s       :     5.613884  s :     5.613884
      pz      :     3.652805  p :    10.993265
      px      :     3.587793
      py      :     3.752667
      dz2     :     0.003315  d :     0.037147
      dxz     :     0.013030
      dyz     :     0.007771
      dx2y2   :     0.003673
      dxy     :     0.009357


                      *****************************
                      * MAYER POPULATION ANALYSIS *
                      *****************************

  NA   - Mulliken gross atomic population
  ZA   - Total nuclear charge
  QA   - Mulliken gross atomic charge
  VA   - Mayer's total valence
  BVA  - Mayer's bonded valence
  FA   - Mayer's free valence

  ATOM       NA         ZA         QA         VA         BVA        FA
  0 C      5.9861     6.0000     0.0139     4.2594     4.2594     0.0000
  1 N      7.1977     7.0000    -0.1977     2.7302     2.7302    -0.0000
  2 C      6.2755     6.0000    -0.2755     4.0255     4.0255     0.0000
  3 C      6.3435     6.0000    -0.3435     4.5125     4.5125     0.0000
  4 C      5.4723     6.0000     0.5277     4.0291     4.0291    -0.0000
  5 C      6.2078     6.0000    -0.2078     3.4032     3.4032     0.0000
  6 N      7.0046     7.0000    -0.0046     4.0025     4.0025    -0.0000
  7 O      8.1611     8.0000    -0.1611     2.1109     2.1109    -0.0000
  8 O      8.1170     8.0000    -0.1170     2.1935     2.1935    -0.0000
  9 F      9.1203     9.0000    -0.1203     0.9240     0.9240     0.0000
 10 H      0.7156     1.0000     0.2844     0.8737     0.8737    -0.0000
 11 H      0.7218     1.0000     0.2782     0.9090     0.9090    -0.0000
 12 H      0.6765     1.0000     0.3235     0.8342     0.8342    -0.0000
 13 C      6.4083     6.0000    -0.4083     3.5637     3.5637     0.0000
 14 H      0.8737     1.0000     0.1263     0.9425     0.9425    -0.0000
 15 H      0.8728     1.0000     0.1272     0.9423     0.9423    -0.0000
 16 H      0.8732     1.0000     0.1268     0.9427     0.9427    -0.0000
 17 S     16.9721    16.0000    -0.9721     0.5896     0.5896    -0.0000

  Mayer bond orders larger than 0.100000
B(  0-C ,  1-N ) :   1.3030 B(  0-C ,  2-C ) :   0.1765 B(  0-C ,  3-C ) :   0.1793 
B(  0-C ,  4-C ) :   0.2670 B(  0-C ,  5-C ) :   1.2313 B(  0-C ,  6-N ) :  -0.1919 
B(  0-C ,  8-O ) :  -0.1089 B(  0-C ,  9-F ) :   1.3385 B(  1-N ,  2-C ) :   1.1693 
B(  1-N ,  5-C ) :   0.1985 B(  2-C ,  3-C ) :   1.6707 B(  2-C ,  5-C ) :   0.1035 
B(  2-C , 10-H ) :   0.8831 B(  3-C ,  4-C ) :   1.4044 B(  3-C ,  5-C ) :   0.1654 
B(  3-C ,  8-O ) :   0.1625 B(  3-C , 11-H ) :   0.8378 B(  4-C ,  5-C ) :   1.5309 
B(  4-C ,  8-O ) :   0.2395 B(  4-C ,  9-F ) :  -0.1231 B(  4-C , 12-H ) :   0.7217 
B(  5-C ,  6-N ) :   0.6590 B(  5-C ,  7-O ) :  -0.1115 B(  5-C ,  8-O ) :  -0.2037 
B(  5-C ,  9-F ) :  -0.3247 B(  5-C , 12-H ) :   0.1403 B(  6-N ,  7-O ) :   1.8189 
B(  6-N ,  8-O ) :   1.8416 B(  7-O ,  8-O ) :   0.2480 B( 13-C , 14-H ) :   0.9806 
B( 13-C , 15-H ) :   0.9818 B( 13-C , 16-H ) :   0.9822 B( 13-C , 17-S ) :   0.6191 


-------
TIMINGS
-------

Total SCF time: 0 days 0 hours 0 min 12 sec 

Total time                  ....      12.178 sec
Sum of individual times     ....      11.212 sec  ( 92.1%)

Fock matrix formation       ....       9.490 sec  ( 77.9%)
  Split-RI-J                ....       0.548 sec  (  5.8% of F)
  Chain of spheres X        ....       7.405 sec  ( 78.0% of F)
  XC integration            ....       0.857 sec  (  9.0% of F)
    Basis function eval.    ....       0.110 sec  ( 12.9% of XC)
    Density eval.           ....       0.186 sec  ( 21.7% of XC)
    XC-Functional eval.     ....       0.045 sec  (  5.2% of XC)
    XC-Potential eval.      ....       0.089 sec  ( 10.4% of XC)
Diagonalization             ....       0.026 sec  (  0.2%)
Density matrix formation    ....       0.008 sec  (  0.1%)
Population analysis         ....       0.054 sec  (  0.4%)
Initial guess               ....       0.046 sec  (  0.4%)
Orbital Transformation      ....       0.000 sec  (  0.0%)
Orbital Orthonormalization  ....       0.032 sec  (  0.3%)
DIIS solution               ....       0.010 sec  (  0.1%)
SOSCF solution              ....       0.082 sec  (  0.7%)
Grid generation             ....       1.497 sec  ( 12.3%)

Maximum memory used throughout the entire SCF-calculation: 67.9 MB

-------------------------   --------------------
FINAL SINGLE POINT ENERGY      -990.265190711260
-------------------------   --------------------

                                *** OPTIMIZATION RUN DONE ***

                            ***************************************
                            *     ORCA property calculations      *
                            ***************************************

                                    ---------------------
                                    Active property flags
                                    ---------------------
   (+) Dipole Moment


------------------------------------------------------------------------------
                       ORCA ELECTRIC PROPERTIES CALCULATION
------------------------------------------------------------------------------

Dipole Moment Calculation                       ... on
Quadrupole Moment Calculation                   ... off
Polarizability Calculation                      ... off
GBWName                                         ... structure_opt.gbw
Electron density                                ... structure_opt.scfp
The origin for moment calculation is the CENTER OF MASS  = (-3.598937, -1.490304  1.293865)

-------------
DIPOLE MOMENT
-------------
                                X             Y             Z
Electronic contribution:     13.51595      12.80525      16.71892
Nuclear contribution   :     -7.58116      -8.49086      -5.10973
                        -----------------------------------------
Total Dipole Moment    :      5.93479       4.31438      11.60918
                        -----------------------------------------
Magnitude (a.u.)       :     13.73349
Magnitude (Debye)      :     34.90777



--------------------
Rotational spectrum 
--------------------
 
Rotational constants in cm-1:     0.048189     0.005425     0.005086 
Rotational constants in MHz :  1444.658201   162.643409   152.462173 

 Dipole components along the rotational axes: 
x,y,z [a.u.] :    13.654054     0.753416     1.268071 
x,y,z [Debye]:    34.705848     1.915033     3.223180 

 

Timings for individual modules:

Sum of individual times         ...     1172.763 sec (=  19.546 min)
GTO integral calculation        ...       62.678 sec (=   1.045 min)   5.3 %
SCF iterations                  ...      911.269 sec (=  15.188 min)  77.7 %
SCF Gradient evaluation         ...      197.349 sec (=   3.289 min)  16.8 %
Geometry relaxation             ...        1.468 sec (=   0.024 min)   0.1 %
                             ****ORCA TERMINATED NORMALLY****
TOTAL RUN TIME: 0 days 0 hours 20 minutes 49 seconds 19 msec
