
                                 *****************
                                 * O   R   C   A *
                                 *****************

                                            #,                                       
                                            ###                                      
                                            ####                                     
                                            #####                                    
                                            ######                                   
                                           ########,                                 
                                     ,,################,,,,,                         
                               ,,#################################,,                 
                          ,,##########################################,,             
                       ,#########################################, ''#####,          
                    ,#############################################,,   '####,        
                  ,##################################################,,,,####,       
                ,###########''''           ''''###############################       
              ,#####''   ,,,,##########,,,,          '''####'''          '####       
            ,##' ,,,,###########################,,,                        '##       
           ' ,,###''''                  '''############,,,                           
         ,,##''                                '''############,,,,        ,,,,,,###''
      ,#''                                            '''#######################'''  
     '                                                          ''''####''''         
             ,#######,   #######,   ,#######,      ##                                
            ,#'     '#,  ##    ##  ,#'     '#,    #''#        ######   ,####,        
            ##       ##  ##   ,#'  ##            #'  '#       #        #'  '#        
            ##       ##  #######   ##           ,######,      #####,   #    #        
            '#,     ,#'  ##    ##  '#,     ,#' ,#      #,         ##   #,  ,#        
             '#######'   ##     ##  '#######'  #'      '#     #####' # '####'        



                  #######################################################
                  #                        -***-                        #
                  #          Department of theory and spectroscopy      #
                  #    Directorship and core code : Frank Neese         #
                  #        Max Planck Institute fuer Kohlenforschung    #
                  #                Kaiser Wilhelm Platz 1               #
                  #                 D-45470 Muelheim/Ruhr               #
                  #                      Germany                        #
                  #                                                     #
                  #                  All rights reserved                #
                  #                        -***-                        #
                  #######################################################


                         Program Version 5.0.1 -  RELEASE  -


 With contributions from (in alphabetic order):
   Daniel Aravena         : Magnetic Suceptibility
   Michael Atanasov       : Ab Initio Ligand Field Theory (pilot matlab implementation)
   Alexander A. Auer      : GIAO ZORA, VPT2 properties, NMR spectrum
   Ute Becker             : Parallelization
   Giovanni Bistoni       : ED, misc. LED, open-shell LED, HFLD
   Martin Brehm           : Molecular dynamics
   Dmytro Bykov           : SCF Hessian
   Vijay G. Chilkuri      : MRCI spin determinant printing, contributions to CSF-ICE
   Dipayan Datta          : RHF DLPNO-CCSD density
   Achintya Kumar Dutta   : EOM-CC, STEOM-CC
   Dmitry Ganyushin       : Spin-Orbit,Spin-Spin,Magnetic field MRCI
   Miquel Garcia          : C-PCM and meta-GGA Hessian, CC/C-PCM, Gaussian charge scheme
   Yang Guo               : DLPNO-NEVPT2, F12-NEVPT2, CIM, IAO-localization
   Andreas Hansen         : Spin unrestricted coupled pair/coupled cluster methods
   Benjamin Helmich-Paris : MC-RPA, TRAH-SCF, COSX integrals
   Lee Huntington         : MR-EOM, pCC
   Robert Izsak           : Overlap fitted RIJCOSX, COSX-SCS-MP3, EOM
   Marcus Kettner         : VPT2
   Christian Kollmar      : KDIIS, OOCD, Brueckner-CCSD(T), CCSD density, CASPT2, CASPT2-K
   Simone Kossmann        : Meta GGA functionals, TD-DFT gradient, OOMP2, MP2 Hessian
   Martin Krupicka        : Initial AUTO-CI
   Lucas Lang             : DCDCAS
   Marvin Lechner         : AUTO-CI (C++ implementation), FIC-MRCC
   Dagmar Lenk            : GEPOL surface, SMD
   Dimitrios Liakos       : Extrapolation schemes; Compound Job, initial MDCI parallelization
   Dimitrios Manganas     : Further ROCIS development; embedding schemes
   Dimitrios Pantazis     : SARC Basis sets
   Anastasios Papadopoulos: AUTO-CI, single reference methods and gradients
   Taras Petrenko         : DFT Hessian,TD-DFT gradient, ASA, ECA, R-Raman, ABS, FL, XAS/XES, NRVS
   Peter Pinski           : DLPNO-MP2, DLPNO-MP2 Gradient
   Christoph Reimann      : Effective Core Potentials
   Marius Retegan         : Local ZFS, SOC
   Christoph Riplinger    : Optimizer, TS searches, QM/MM, DLPNO-CCSD(T), (RO)-DLPNO pert. Triples
   Tobias Risthaus        : Range-separated hybrids, TD-DFT gradient, RPA, STAB
   Michael Roemelt        : Original ROCIS implementation
   Masaaki Saitow         : Open-shell DLPNO-CCSD energy and density
   Barbara Sandhoefer     : DKH picture change effects
   Avijit Sen             : IP-ROCIS
   Kantharuban Sivalingam : CASSCF convergence, NEVPT2, FIC-MRCI
   Bernardo de Souza      : ESD, SOC TD-DFT
   Georgi Stoychev        : AutoAux, RI-MP2 NMR, DLPNO-MP2 response
   Willem Van den Heuvel  : Paramagnetic NMR
   Boris Wezisla          : Elementary symmetry handling
   Frank Wennmohs         : Technical directorship


 We gratefully acknowledge several colleagues who have allowed us to
 interface, adapt or use parts of their codes:
   Stefan Grimme, W. Hujo, H. Kruse, P. Pracht,  : VdW corrections, initial TS optimization,
                  C. Bannwarth, S. Ehlert          DFT functionals, gCP, sTDA/sTD-DF
   Ed Valeev, F. Pavosevic, A. Kumar             : LibInt (2-el integral package), F12 methods
   Garnet Chan, S. Sharma, J. Yang, R. Olivares  : DMRG
   Ulf Ekstrom                                   : XCFun DFT Library
   Mihaly Kallay                                 : mrcc  (arbitrary order and MRCC methods)
   Jiri Pittner, Ondrej Demel                    : Mk-CCSD
   Frank Weinhold                                : gennbo (NPA and NBO analysis)
   Christopher J. Cramer and Donald G. Truhlar   : smd solvation model
   Lars Goerigk                                  : TD-DFT with DH, B97 family of functionals
   V. Asgeirsson, H. Jonsson                     : NEB implementation
   FAccTs GmbH                                   : IRC, NEB, NEB-TS, DLPNO-Multilevel, CI-OPT
                                                   MM, QMMM, 2- and 3-layer-ONIOM, Crystal-QMMM,
                                                   LR-CPCM, SF, NACMEs, symmetry and pop. for TD-DFT,
                                                   nearIR, NL-DFT gradient (VV10), updates on ESD,
                                                   ML-optimized integration grids
   S Lehtola, MJT Oliveira, MAL Marques          : LibXC Library
   Liviu Ungur et al                             : ANISO software


 Your calculation uses the libint2 library for the computation of 2-el integrals
 For citations please refer to: http://libint.valeyev.net

 Your ORCA version has been built with support for libXC version: 5.1.0
 For citations please refer to: https://tddft.org/programs/libxc/

 This ORCA versions uses:
   CBLAS   interface :  Fast vector & matrix operations
   LAPACKE interface :  Fast linear algebra routines
   SCALAPACK package :  Parallel linear algebra routines
   Shared memory     :  Shared parallel matrices
   BLAS/LAPACK       :  OpenBLAS 0.3.15  USE64BITINT DYNAMIC_ARCH NO_AFFINITY SkylakeX SINGLE_THREADED
        Core in use  :  SkylakeX
   Copyright (c) 2011-2014, The OpenBLAS Project




***************************************
The coordinates will be read from file: structure_opt.xyz
***************************************


Your calculation utilizes the atom-pairwise dispersion correction
based on tight binding partial charges (D4)
Cite in your paper:
E.Caldeweyher, C.Bannwarth, S.Grimme, J.Chem.Phys., (2017), 147, 034112.
E.Caldeweyher, S.Ehlert, A.Hansen, H.Neugebauer, S.Grimme, J.Chem.Phys., (2018), in progress.
   

Your calculation utilizes the SMD solvation module
Please cite in your paper:
A.V. Marenich, C.J. Cramer, D.G. Truhlar J. Phys. Chem. B, 113, (2009), 6378 

XCFun DFT library Copyright 2009-2010 Ulf Ekstrom and contributors.
See http://admol.org/xcfun for more information.
This is free software; see the source code for copying conditions.
There is ABSOLUTELY NO WARRANTY; not even for MERCHANTABILITY or FITNESS FOR A PARTICULAR PURPOSE.
For details see the documentation.
Scientific users of this library should cite U. Ekstrom, L. Visscher, R. Bast, A. J. Thorvaldsen and K. Ruud;
J.Chem.Theor.Comp. 2010, DOI: 10.1021/ct100117s
XCFun Version 0.99 

Your calculation utilizes a Nudged-Elastic-Band implementation
 by V.Asgeirsson, C. Riplinger & H. Jonsson
Please cite in your paper:
 V. Asgeirsson et al., in prep. (2019)
   

================================================================================

----- Orbital basis set information -----
Your calculation utilizes the basis: 6-311++G**
   H, Li - Ne  : R. Krishnan, J. S. Binkley, R. Seeger and J. A. Pople, J. Chem. Phys. 72, 650 (1980).
   Na - Ar     : A. D. McLean and G. S. Chandler J. Chem. Phys. 72, 5639, (1980).
   K  - Ca     : J.-P. Blaudeau, M. P. McGrath, L. A. Curtiss and L. Radom, J. Chem. Phys. 107, 5016 (1997).
   Ga - Kr     : L. A. Curtiss, M. P. McGrath, J.-P. Blandeau, N. E. Davis, R. C. Binning and L. Radom, J. Chem. Phys. 103, 6104 (1995).
   Pol./Diff.
   H, Li - Cl  : T. Clark, J. Chandrasekhar and P. v. R. Schleyer, J. Comp. Chem. 4, 294 (1983).
   H - Ne      : M. J. Frisch, J. A. Pople and J. S. Binkley, J. Chem. Phys. 80, 3265 (1984).

----- AuxJ basis set information -----
Your calculation utilizes the auxiliary basis: def2/J
   F. Weigend, Phys. Chem. Chem. Phys. 8, 1057 (2006).

================================================================================
                                        WARNINGS
                       Please study these warnings very carefully!
================================================================================


WARNING: The environment variable RSH_COMMAND is not set!
  ===> : All Displacements for the Numerical Hessian calculation
         will be started on localhost

WARNING: Geometry Optimization
  ===> : Switching off AutoStart
         For restart on a previous wavefunction, please use MOREAD

INFO   : the flag for use of the SHARK integral package has been found!

================================================================================
                                       INPUT FILE
================================================================================
NAME = TS_search_opt_without_h.inp
|  1> !wb97x 6-311++G** D4 NEB-TS OPT NUMFREQ CPCM(WATER)
|  2> %maxcore  3500
|  3> %pal
|  4> nprocs 24
|  5> end
|  6> %cpcm
|  7> smd true
|  8> SMDsolvent "water"
|  9> end
| 10> %geom
| 11> MaxIter 1000   # allows for n optimization cycles
| 12> EnforceStrictConvergence False
| 13> end
| 14> %NEB NEB_END_XYZFILE "2f3_prod_opt.xyz" END
| 15> * XYZfile -1 1 structure_opt.xyz
| 16> 
| 17>                          ****END OF INPUT****
================================================================================


------------------------------------------------------------------------------- 
                         Nudged Elastic Band Calculation                       
------------------------------------------------------------------------------- 

Number of images (incl. end points)     ....  10
Number of intermediate images           ....  8
Number of optimized images              ....  8
Optimization of end points before NEB   ....  NO
Use existing gbw files for MO input     ....  NO
Number of atoms                         ....  18
Number of (active) degrees of freedom   ....  54
Constrained atoms                       ....  None

-----------------------------------------
  REACTANT (ANGSTROEM)
-----------------------------------------
C     -0.001409    -0.001693     1.843434 
N      1.121074    -0.189481     2.468481 
C      1.191427    -0.200368     3.799241 
C      0.083416    -0.016309     4.596294 
C     -1.122424     0.185245     3.956787 
C     -1.194707     0.196647     2.572208 
N     -2.457337     0.408544     1.911856 
O     -2.539936     0.423050     0.666706 
O     -3.430102     0.570708     2.622171 
F      0.001194    -0.001190     0.493436 
H      2.176320    -0.362475     4.223434 
H      0.152860    -0.027596     5.675946 
H     -2.030253     0.336439     4.526024 
C     -5.752107    -4.182126    -5.163192 
H     -5.230273    -4.635588    -6.010443 
H     -6.497279    -3.476358    -5.540494 
H     -6.259757    -4.968321    -4.597283 
S     -4.573706    -3.326127    -4.100607 

-----------------------------------------
  PRODUCT (ANGSTROEM)
-----------------------------------------
C     -0.006655     0.014080     1.789576 
N      1.150760    -0.163122     2.425247 
C      1.177726    -0.139964     3.759145 
C      0.054738     0.057580     4.546999 
C     -1.158972     0.233636     3.911162 
C     -1.178720     0.217442     2.525234 
N     -2.493686     0.427964     1.904940 
O     -2.584738     1.164910     0.947848 
O     -3.439094    -0.145340     2.414303 
F      3.139899     2.499865     0.919104 
H      2.152169    -0.281946     4.215772 
H      0.130494     0.071637     5.627108 
H     -2.077395     0.389730     4.465403 
C      0.049505     1.625975    -0.482258 
H     -0.875798     2.113075    -0.187252 
H      0.131238     1.624494    -1.570971 
H      0.921382     2.132605    -0.060262 
S      0.064147    -0.119619     0.009902 



----------------------
NEB settings
----------------------
Method type                             ....  climbing image
Threshold for climbing image            ....  2.00e-02 Eh/Bohr 
Free endpoints                          ....  off 
Tangent type                            ....  improved 
Number of intermediate images           ....  8 
Number of images free to move           ....  8 
Spring type for image distribution      ....  distance between adjacent images 
Spring constant                         ....  energy weighted (0.0100 -to- 0.1000) Eh/Bohr^2 
Spring force perp. to the path          ....  none 
Generation of initial path              ....  image dependent pair potential 
Initial path via TS guess               ....  off 

Minimization of RMSD: Rotation          ....  always 
Minimization of RMSD: Translation type  ....  centroid 
Center fixed to origin                  ....  true 
Remove external force                   ....  true 

Reparametrization of the path           ....  off 
Convergence thresholds:
Convergence monitored for               ....  all images
Scaling factor                          ....  10.00

Convergence parameters for regular images:
               Max(|Fp|)                ....  2.00e-02 Eh/Bohr
               RMS(Fp)                  ....  1.00e-02 Eh/Bohr

Convergence parameters for climbing image:
               Max(|F|)                 ....  2.00e-03 Eh/Bohr
               RMS(F)                   ....  1.00e-03 Eh/Bohr
Optimization method:
Method                                  ....  L-BFGS
Max. iterations                         ....  500 
Step size                               ....  1.00 
Maximum allowed step size               ....  0.10 Bohr

LBFGS parameters: 
               Memory                   ....  20 
               Initial step size        ....  0.0010 
               Estimate curvature       ....  YES 
               Reset on maxmove         ....  YES 
               Reparam. on reset        ....  NO 
Generation of  the initial path:
Minimize RMSD between reactant and product configurations     .... done
       RMSD before minimization         ....  5.5288 Bohr
       RMSD after minimization          ....  3.6817 Bohr
Performing linear interpolation         ....  done
Interpolation using                     ....  IDPP (Image Dependent Pair Potential)
IDPP-Settings:
       Remove global transl. and rot.   ...   true
       Convergence tolerance            ....  0.0100 1/Ang.^3
       Max. numer of iterations         ....    7000
       Spring constant                  ....  1.0000 1/Ang.^4
       Time step                        ....  0.0100 fs
       Max. movement per iteration      ....  0.0500 Ang.
       Full print                       ....  false 
idpp initial path generation successfully converged in 447 iterations
Displacement along initial path:             28.5355 Bohr
Writing initial trajectory to file      ....  TS_search_opt_without_h_initial_path_trj.xyz



----------------------
NEB OPTIMIZATION      
----------------------

Following output files will be written:
Energy profile during opt. written to    ....  TS_search_opt_without_h.interp
Optimization log-file                    ....  TS_search_opt_without_h.NEB.log
Current trajectory will be written to    ....  TS_search_opt_without_h_MEP_trj.xyz
       and to allxyz file                ....  TS_search_opt_without_h_MEP.allxyz
       and individual images to xyz file ....  TS_search_opt_without_h_im{NIm}.xyz
Trajectory history will be written to    ....  TS_search_opt_without_h_MEP_ALL_trj.xyz
Converged CI will be written to          ....  TS_search_opt_without_h_NEB-CI_converged.xyz
Converged TS will be written to          ....  TS_search_opt_without_h_NEB-TS_converged.xyz

Single point energy and gradient calculation of reactant and
product configurations (have to be performed only once)
Properties of fixed NEB end points:
               Reactant:
                         E               ....   -990.267579 Eh
                         RMS(F)          ....      0.010140 Eh/Bohr
                         MAX(|F|)        ....      0.037106 Eh/Bohr
      Warning: Reactant seems to be less converged than convergence tolerances.
               You might want to use free end NEB or preopt_ends true.
               Product:
                         E               ....   -990.305450 Eh
                         RMS(F)          ....      0.001271 Eh/Bohr
                         MAX(|F|)        ....      0.004105 Eh/Bohr



Starting iterations:

Optim.  Iteration  HEI  E(HEI)-E(0)  max(|Fp|)   RMS(Fp)    dS
Switch-on CI threshold               0.020000 
   LBFGS     0      5    0.192369    0.129640   0.019626  28.5355       
   LBFGS     1      5    0.171478    0.079289   0.009706  28.5325       
   LBFGS     2      5    0.175115    0.165457   0.016930  28.5432       
   LBFGS     3      5    0.162940    0.063838   0.007674  28.5433       
   LBFGS     4      5    0.163747    0.067800   0.008906  28.5509       
   LBFGS     5      5    0.168806    0.113343   0.012100  28.5835       
   LBFGS     6      5    0.158381    0.062555   0.007331  28.5927       
   LBFGS     7      5    0.161706    0.109968   0.011021  28.6099       
   LBFGS     8      5    0.162278    0.122323   0.013007  28.6458       
   LBFGS     9      5    0.156241    0.052186   0.006133  28.6509       
   LBFGS    10      5    0.156898    0.059083   0.007155  28.6633       
   LBFGS    11      5    0.159334    0.079624   0.009219  28.6959       
   LBFGS    12      5    0.161359    0.128287   0.011453  28.7157       
   LBFGS    13      5    0.155732    0.059196   0.007851  28.7265       
   LBFGS    14      5    0.154021    0.046744   0.007087  28.7599       
   LBFGS    15      6    0.153913    0.064004   0.007822  28.7758       
   LBFGS    16      5    0.154145    0.071267   0.009054  28.8051       
   LBFGS    17      5    0.154338    0.073266   0.009708  28.8464       
   LBFGS    18      6    0.153980    0.060488   0.008697  28.8667       
   LBFGS    19      5    0.153057    0.034907   0.005667  28.8771       
   LBFGS    20      5    0.153445    0.035981   0.006412  28.9210       
   LBFGS    21      5    0.154886    0.066169   0.008512  28.9520       
   LBFGS    22      5    0.153631    0.039813   0.007298  28.9817       
   LBFGS    23      5    0.153620    0.046550   0.007428  29.0374       
   LBFGS    24      5    0.153138    0.036734   0.006443  29.0621       
   LBFGS    25      5    0.152915    0.037013   0.006013  29.0911       
   LBFGS    26      5    0.153070    0.042639   0.006423  29.1545       
   LBFGS    27      5    0.152924    0.031025   0.005430  29.1829       
   LBFGS    28      5    0.152779    0.037073   0.005598  29.2208       
   LBFGS    29      5    0.153056    0.042549   0.006367  29.2905       
   LBFGS    30      5    0.152719    0.023934   0.005278  29.3201       
   LBFGS    31      5    0.152531    0.034470   0.005094  29.3506       
   LBFGS    32      5    0.152385    0.037128   0.004838  29.4223       
   LBFGS    33      5    0.152442    0.036639   0.004495  29.4565       
   LBFGS    34      5    0.152472    0.039188   0.005111  29.5023       
   LBFGS    35      5    0.152560    0.042268   0.005667  29.5757       
   LBFGS    36      5    0.152344    0.023649   0.004376  29.5983       
   LBFGS    37      5    0.152143    0.028639   0.003977  29.6212       
   LBFGS    38      5    0.152014    0.027416   0.003627  29.6802       
   LBFGS    39      5    0.152011    0.026906   0.003720  29.7146       
   LBFGS    40      5    0.152124    0.031548   0.004774  29.7699       
   LBFGS    41      5    0.152159    0.038270   0.005186  29.8339       

Possible intermediate minimum found at image(s): 1 
  => have a look at the .interp file.
  => it is often a good idea to divide the path calculation into smaller fragments. 

   LBFGS    42      5    0.152035    0.033727   0.004188  29.8524       
   LBFGS    43      5    0.151929    0.018938   0.003035  29.8669       

Image  5 will be converted to a climbing image in the next iteration (max(|Fp|) < 0.0200) 

Optim.  Iteration  CI   E(CI)-E(0)   max(|Fp|)   RMS(Fp)    dS     max(|FCI|)   RMS(FCI)
Convergence thresholds               0.020000   0.010000            0.002000    0.001000 
   LBFGS    44      5    0.151888    0.018598   0.002765  29.8690    0.005044    0.001558       
   LBFGS    45      5    0.152287    0.042399   0.005111  29.9116    0.025455    0.005559       
   LBFGS    46      5    0.152086    0.035653   0.005020  29.9582    0.009955    0.003451       
   LBFGS    47      5    0.152104    0.036169   0.005259  30.0186    0.014304    0.004055       
   LBFGS    48      5    0.152018    0.039319   0.003591  30.0363    0.023824    0.005250       
   LBFGS    49      5    0.151750    0.018221   0.002787  30.0493    0.010357    0.002336       
   LBFGS    50      5    0.151915    0.034320   0.003608  30.0724    0.021745    0.004415       
   LBFGS    51      5    0.152332    0.057518   0.005058  30.1448    0.035717    0.007254       
   LBFGS    52      5    0.151730    0.023013   0.002521  30.1544    0.017902    0.003969       
   LBFGS    53      5    0.151561    0.015734   0.001981  30.1612    0.008375    0.001931       
   LBFGS    54      5    0.151596    0.024342   0.003265  30.2205    0.008676    0.002734       
   LBFGS    55      5    0.151717    0.029049   0.002803  30.2358    0.022643    0.004899       
   LBFGS    56      5    0.151435    0.015422   0.002308  30.2491    0.003247    0.001298       
   LBFGS    57      5    0.151663    0.026155   0.003512  30.2846    0.021522    0.004424       
   LBFGS    58      5    0.152421    0.052349   0.005167  30.3753    0.042544    0.008622       
   LBFGS    59      5    0.151488    0.019405   0.002292  30.3834    0.019183    0.004383       
   LBFGS    60      5    0.151246    0.011863   0.001556  30.3880    0.005570    0.001494       
   LBFGS    61      5    0.151274    0.014028   0.002263  30.4123    0.008937    0.002392       
   LBFGS    62      5    0.151655    0.021292   0.003068  30.4538    0.025068    0.005837       
   LBFGS    63      5    0.151662    0.033383   0.004148  30.5452    0.025865    0.006262       
   LBFGS    64      5    0.151307    0.025255   0.002429  30.5552    0.024240    0.005115       
   LBFGS    65      5    0.150970    0.009904   0.001414  30.5612    0.005057    0.001313       
   LBFGS    66      5    0.150952    0.009351   0.001572  30.5785    0.006353    0.001412       
   LBFGS    67      5    0.151161    0.017068   0.002354  30.6169    0.020685    0.004233       
   LBFGS    68      5    0.151554    0.039495   0.004088  30.7520    0.032157    0.006746       
   LBFGS    69      5    0.150992    0.022061   0.002282  30.7589    0.020173    0.004707       
   LBFGS    70      5    0.150690    0.010082   0.001399  30.7618    0.005980    0.001637       
   LBFGS    71      5    0.150641    0.006961   0.001374  30.7735    0.003216    0.001182       
   LBFGS    72      5    0.150738    0.009015   0.001419  30.7917    0.014430    0.003271       

Possible intermediate minimum found at image(s): 1 
  => have a look at the .interp file.
  => it is often a good idea to divide the path calculation into smaller fragments. 

   LBFGS    73      5    0.150449    0.028383   0.002841  30.8932    0.004353    0.001628       
   LBFGS    74      5    0.150339    0.034939   0.002886  30.9111    0.003409    0.000942       
   LBFGS    75      5    0.150308    0.014486   0.001493  30.9205    0.003431    0.000667       
   LBFGS    76      5    0.150280    0.006021   0.000942  30.9471    0.003474    0.000826       
   LBFGS    77      5    0.150229    0.008656   0.001150  30.9717    0.003514    0.000814       
   LBFGS    78      5    0.149909    0.023831   0.002374  31.1218    0.003766    0.000705       
   LBFGS    79      5    0.149609    0.036667   0.003122  31.2900    0.010867    0.002228       
   LBFGS    80      5    0.149575    0.025316   0.002160  31.2859    0.008608    0.002039       
   LBFGS    81      5    0.149517    0.012873   0.001296  31.2822    0.004116    0.000986       
   LBFGS    82      5    0.149439    0.003942   0.000763  31.2723    0.004206    0.000764       
   LBFGS    83      5    0.149408    0.003317   0.000693  31.2757    0.007323    0.001537       
   LBFGS    84      5    0.148966    0.010825   0.001608  31.3186    0.011607    0.002524       
   LBFGS    85      5    0.148707    0.010868   0.001670  31.4098    0.030773    0.006388       
   LBFGS    86      5    0.148415    0.007044   0.001235  31.4186    0.023027    0.005176       
   LBFGS    87      5    0.148138    0.005104   0.000950  31.4238    0.011119    0.002733       
   LBFGS    88      5    0.147927    0.003676   0.000688  31.4448    0.005698    0.001171       
   LBFGS    89      5    0.147817    0.003115   0.000662  31.4562    0.008118    0.001772       
   LBFGS    90      5    0.147137    0.020163   0.001875  31.4990    0.006471    0.001428       
   LBFGS    91      5    0.146067    0.008615   0.001589  31.5572    0.012703    0.002704       
   LBFGS    92      5    0.146423    0.009729   0.001087  31.5359    0.028646    0.006670       
   LBFGS    93      5    0.145793    0.006246   0.001054  31.5185    0.007338    0.002102       
   LBFGS    94      5    0.145580    0.006942   0.001179  31.4923    0.008317    0.001978       
   LBFGS    95      5    0.145346    0.005076   0.001147  31.4555    0.018014    0.003709       
   LBFGS    96      5    0.144246    0.032355   0.002946  31.3866    0.012756    0.002901       
   LBFGS    97      5    0.143557    0.011261   0.001958  31.3578    0.015289    0.003443       
   LBFGS    98      5    0.141589    0.021844   0.003106  31.3356    0.009178    0.002590       
   LBFGS    99      5    0.141506    0.028466   0.003157  31.3504    0.009444    0.002885       
   LBFGS   100      5    0.141367    0.018651   0.002162  31.3624    0.009009    0.002189       
   LBFGS   101      5    0.141031    0.011799   0.002128  31.4263    0.009016    0.002019       
   LBFGS   102      5    0.140911    0.018632   0.001971  31.4497    0.008918    0.002003       
   LBFGS   103      5    0.140775    0.007854   0.001560  31.4733    0.008921    0.001965       

Possible intermediate minimum found at image(s): 1 
  => have a look at the .interp file.
  => it is often a good idea to divide the path calculation into smaller fragments. 

   LBFGS   104      5    0.140432    0.013664   0.002317  31.5262    0.008855    0.002017       
   LBFGS   105      5    0.139326    0.022445   0.003904  31.6915    0.008848    0.002345       
   LBFGS   106      5    0.139232    0.019336   0.002539  31.6704    0.008663    0.002148       
   LBFGS   107      5    0.139145    0.008691   0.001398  31.6570    0.008646    0.001933       
   LBFGS   108      5    0.138967    0.007608   0.001465  31.6421    0.008552    0.001909       
   LBFGS   109      5    0.138549    0.015085   0.002423  31.6360    0.008337    0.002085       
   LBFGS   110      5    0.137510    0.030644   0.003871  31.6839    0.007725    0.001927       
   LBFGS   111      5    0.137411    0.020838   0.002531  31.6963    0.007662    0.001806       
   LBFGS   112      5    0.137314    0.015783   0.001828  31.7099    0.007637    0.001766       
   LBFGS   113      5    0.136900    0.008547   0.001661  31.7578    0.007482    0.001757       
   LBFGS   114      5    0.136260    0.023091   0.002855  31.8172    0.007239    0.001776       
   LBFGS   115      5    0.135229    0.016175   0.002546  31.8977    0.006854    0.001698       
   LBFGS   116      5    0.133133    0.018774   0.002719  32.0284    0.006229    0.001694       
   LBFGS   117      5    0.132839    0.034660   0.003653  31.9969    0.006168    0.001936       
   LBFGS   118      5    0.132509    0.015340   0.001747  31.9780    0.006184    0.001716       
   LBFGS   119      5    0.132021    0.006496   0.001300  31.9669    0.006228    0.001691       
   LBFGS   120      5    0.131318    0.012331   0.001801  31.9611    0.006289    0.001739       
   LBFGS   121      5    0.128960    0.024101   0.003151  31.9671    0.006518    0.001978       
   LBFGS   122      5    0.125702    0.028840   0.004168  32.0063    0.006849    0.002122       
   LBFGS   123      5    0.125427    0.025641   0.003351  31.9942    0.006920    0.002075       
   LBFGS   124      5    0.125164    0.015957   0.002571  31.9855    0.007034    0.002087       
   LBFGS   125      5    0.123308    0.019731   0.002773  31.9767    0.007801    0.002221       
   LBFGS   126      5    0.122008    0.031933   0.004454  31.9731    0.008297    0.002333       
   LBFGS   127      5    0.121690    0.022670   0.002962  31.9616    0.008415    0.002312       
   LBFGS   128      5    0.117821    0.023080   0.003094  31.9500    0.009558    0.002585       
   LBFGS   129      5    0.117369    0.019007   0.002716  31.9522    0.009608    0.002586       
   LBFGS   130      5    0.116940    0.014354   0.002226  31.9543    0.009678    0.002599       
   LBFGS   131      5    0.114359    0.010030   0.001899  31.9752    0.009944    0.002703       
   LBFGS   132      5    0.112306    0.024048   0.003600  31.9670    0.010067    0.002838       
   LBFGS   133      5    0.110343    0.019344   0.003129  31.9736    0.010238    0.002899       
   LBFGS   134      5    0.105444    0.037888   0.004845  32.0191    0.010888    0.003191       

Possible intermediate minimum found at image(s): 1 
  => have a look at the .interp file.
  => it is often a good idea to divide the path calculation into smaller fragments. 

   LBFGS   135      5    0.104843    0.027434   0.003594  32.0207    0.010970    0.003117       
   LBFGS   136      5    0.104299    0.018938   0.002623  32.0243    0.011089    0.003124       
   LBFGS   137      5    0.101447    0.015633   0.002711  32.0548    0.011772    0.003305       
   LBFGS   138      5    0.097649    0.021541   0.003894  32.0999    0.012798    0.003566       
   LBFGS   139      5    0.092119    0.030351   0.005048  32.1727    0.014107    0.003921       
   LBFGS   140      5    0.091097    0.028873   0.004095  32.1640    0.014180    0.003902       
   LBFGS   141      5    0.089822    0.023000   0.003213  32.1667    0.014279    0.003935       
   LBFGS   142      5    0.084946    0.020596   0.002947  32.2104    0.014429    0.004095       
   LBFGS   143      5    0.082647    0.061167   0.005133  32.1910    0.014485    0.004171       
   LBFGS   144      5    0.080626    0.028748   0.003510  32.1890    0.014461    0.004222       
   LBFGS   145      5    0.072871    0.025044   0.004127  32.2357    0.014306    0.004455       
   LBFGS   146      5    0.070015    0.065542   0.005580  32.2786    0.014501    0.004532       
   LBFGS   147      5    0.067252    0.027702   0.003223  32.3241    0.014762    0.004661       
   LBFGS   148      5    0.064151    0.027650   0.003755  32.3528    0.015019    0.004839       
   LBFGS   149      5    0.055811    0.047647   0.005118  32.4336    0.015353    0.005161       
   LBFGS   150      5    0.053821    0.048481   0.004589  32.4008    0.015535    0.005195       
   LBFGS   151      5    0.051868    0.029083   0.003451  32.3918    0.015659    0.005224       
   LBFGS   152      5    0.042418    0.024124   0.003574  32.4608    0.015907    0.005339       
   LBFGS   153      5    0.031623    0.039956   0.005024  32.6202    0.015691    0.005378       
   LBFGS   154      5    0.027868    0.109569   0.008269  32.6407    0.015406    0.005264       
   LBFGS   155      6    0.026863    0.026823   0.003602  32.6495    0.012152    0.004653       
   LBFGS   156      6    0.024925    0.026412   0.003662  32.7102    0.011646    0.004418       
   LBFGS   157      6    0.021264    0.062145   0.005887  32.8528    0.010598    0.004336       
   LBFGS   158      6    0.020270    0.083109   0.006674  32.8037    0.010177    0.004438       
   LBFGS   159      6    0.019017    0.049157   0.005023  32.8059    0.009639    0.004010       
   LBFGS   160      5    0.024333    0.019952   0.002542  32.7377    0.047691    0.010114       
   LBFGS   161      5    0.024106    0.080582   0.006384  32.6700    0.021514    0.005428       
   LBFGS   162      5    0.023333    0.035029   0.003370  32.6575    0.019144    0.004175       
   LBFGS   163      5    0.022997    0.036085   0.003424  32.6592    0.017079    0.003680       
   LBFGS   164      5    0.022426    0.030120   0.003270  32.6964    0.008214    0.002697       
   LBFGS   165      5    0.022238    0.047830   0.004161  32.7304    0.008004    0.002553       
   LBFGS   166      5    0.022095    0.034370   0.003358  32.7574    0.007174    0.002445       
   LBFGS   167      5    0.021638    0.015861   0.002106  32.8762    0.006977    0.002466       
   LBFGS   168      5    0.021389    0.039655   0.003700  32.9267    0.010036    0.003577       
   LBFGS   169      5    0.020943    0.015932   0.001912  32.9482    0.006774    0.002424       
   LBFGS   170      5    0.019820    0.046354   0.005124  33.1005    0.012829    0.003747       
   LBFGS   171      5    0.019482    0.023086   0.003154  33.0799    0.008697    0.002602       
   LBFGS   172      5    0.019257    0.011286   0.001637  33.0753    0.005085    0.001699       
   LBFGS   173      5    0.018943    0.021923   0.002328  33.0821    0.005473    0.002117       
   LBFGS   174      5    0.018603    0.014743   0.002060  33.0977    0.005079    0.002039       
   LBFGS   175      5    0.017431    0.014776   0.002216  33.1884    0.004586    0.001970       
   LBFGS   176      5    0.017387    0.032961   0.004927  33.2848    0.014799    0.004508       
   LBFGS   177      5    0.016905    0.006810   0.001328  33.2952    0.004417    0.001534       
   LBFGS   178      5    0.016746    0.032769   0.004288  33.3833    0.010997    0.003760       
   LBFGS   179      5    0.016421    0.016860   0.002817  33.4056    0.007239    0.002496       
   LBFGS   180      5    0.015632    0.048138   0.004576  33.5844    0.016318    0.003664       
   LBFGS   181      5    0.015359    0.029746   0.003029  33.6117    0.007817    0.002357       

Possible intermediate minimum found at image(s): 1 
  => have a look at the .interp file.
  => it is often a good idea to divide the path calculation into smaller fragments. 

   LBFGS   182      5    0.015242    0.022689   0.002541  33.6413    0.006012    0.002109       
   LBFGS   183      5    0.014683    0.012465   0.001528  33.8418    0.003784    0.001403       
   LBFGS   184      5    0.014458    0.045897   0.004025  33.9099    0.009880    0.002069       
   LBFGS   185      5    0.014177    0.042365   0.003710  33.9827    0.009712    0.002082       
   LBFGS   186      5    0.013328    0.033062   0.003600  34.1819    0.003894    0.001301       
   LBFGS   187      5    0.013266    0.007936   0.001243  34.1870    0.003367    0.001182       
   LBFGS   188      5    0.013206    0.008266   0.001236  34.1949    0.003350    0.001180       
   LBFGS   189      5    0.012211    0.025420   0.002501  34.3989    0.004869    0.001330       
   LBFGS   190      5    0.012137    0.012356   0.001499  34.4182    0.003006    0.001122       
   LBFGS   191      5    0.012072    0.011440   0.001351  34.4391    0.002988    0.001128       
   LBFGS   192      5    0.011119    0.017454   0.002821  34.7787    0.004459    0.001520       
   LBFGS   193      5    0.010397    0.023859   0.004155  35.0185    0.006803    0.002142       
   LBFGS   194      5    0.010007    0.019218   0.003217  35.0992    0.004228    0.001606       
   LBFGS   195      5    0.008804    0.011098   0.001758  35.4740    0.002130    0.000854       
   LBFGS   196      5    0.008691    0.031559   0.002985  35.4953    0.002840    0.001071       
   LBFGS   197      5    0.008601    0.010006   0.001295  35.5176    0.001987    0.000795       

                                .--------------------.
          ----------------------| CI-NEB convergence |-------------------------
          Item                value                   Tolerance       Converged
          ---------------------------------------------------------------------
          RMS(Fp)             0.0012954839            0.0100000000      YES
          MAX(|Fp|)           0.0100064374            0.0200000000      YES
          RMS(FCI)            0.0007951356            0.0010000000      YES
          MAX(|FCI|)          0.0019865033            0.0020000000      YES
          ---------------------------------------------------------------------

The elastic band and climbing image have converged successfully to a MEP in 197 iterations!


                    *********************H U R R A Y*********************
                    ***        THE NEB OPTIMIZATION HAS CONVERGED     ***
                    *****************************************************



---------------------------------------------------------------
                         PATH SUMMARY              
---------------------------------------------------------------
All forces in Eh/Bohr.

Image Dist.(Ang.)    E(Eh)   dE(kcal/mol)  max(|Fp|)  RMS(Fp)
  0     0.000    -990.26758      0.00       0.03718   0.01014
  1     4.186    -990.27344     -3.68       0.00023   0.00009
  2     8.143    -990.27409     -4.09       0.00899   0.00185
  3    11.959    -990.27394     -3.99       0.00192   0.00079
  4    12.839    -990.26500      1.62       0.01001   0.00188
  5    13.160    -990.25898      5.40       0.00198   0.00079 <= CI
  6    13.356    -990.26329      2.69       0.00605   0.00207
  7    13.767    -990.28113     -8.50       0.00447   0.00170
  8    16.255    -990.30163    -21.37       0.00167   0.00060
  9    18.795    -990.30545    -23.76       0.00410   0.00127

Straight line distance between images along the path:
        D( 0- 1) =   4.1864 Ang.
        D( 1- 2) =   3.9565 Ang.
        D( 2- 3) =   3.8164 Ang.
        D( 3- 4) =   0.8793 Ang.
        D( 4- 5) =   0.3218 Ang.
        D( 5- 6) =   0.1961 Ang.
        D( 6- 7) =   0.4105 Ang.
        D( 7- 8) =   2.4882 Ang.
        D( 8- 9) =   2.5400 Ang.

---------------------------------------------------------------
               INFORMATION ABOUT SADDLE POINT     
---------------------------------------------------------------

Climbing image                            ....  5 
Energy                                    ....  -990.25897839 Eh
Max. abs. force                           ....  1.9865e-03 Eh/Bohr

-----------------------------------------
  SADDLE POINT (ANGSTROEM)
-----------------------------------------
C      0.698954     0.030576    -0.247467 
N      1.794814    -0.573727     0.218244 
C      2.154838    -0.393285     1.484071 
C      1.513040     0.468379     2.370676 
C      0.338321     1.049117     1.936723 
C     -0.094205     0.820654     0.637264 
N     -1.378248     1.313492     0.250532 
O     -1.642020     1.419354    -0.936170 
O     -2.191024     1.581016     1.133472 
F      0.833099     0.435709    -1.543938 
H      3.038015    -0.938258     1.807785 
H      1.926432     0.675906     3.349859 
H     -0.242029     1.703474     2.578015 
C     -1.378426    -1.494243    -2.728933 
H     -1.536091    -0.433543    -2.944249 
H     -2.326028    -2.008179    -2.920537 
H     -0.649429    -1.878785    -3.448836 
S     -0.860015    -1.777656    -0.996510 

-----------------------------------------
  FORCES (Eh/Bohr)
-----------------------------------------
C      0.000226     0.000774    -0.000134 
N      0.000632     0.000978    -0.001199 
C      0.000346    -0.000164    -0.000901 
C     -0.000760    -0.000796    -0.000089 
C     -0.000662    -0.000518    -0.000346 
C      0.000004     0.000436    -0.000670 
N      0.000304     0.000592    -0.000957 
O      0.000114    -0.000011    -0.000970 
O      0.000082     0.001532    -0.000313 
F     -0.000816    -0.000198    -0.000941 
H      0.000364     0.000493    -0.001066 
H     -0.001157    -0.001987     0.000198 
H     -0.000691    -0.001117    -0.000009 
C      0.000502    -0.000098     0.001456 
H      0.000625     0.000246     0.001804 
H      0.000505     0.000167     0.000730 
H      0.000824     0.000376     0.001512 
S     -0.000272    -0.000699     0.001243 

-----------------------------------------
  UNIT TANGENT
-----------------------------------------
C     -0.350687    -0.401614    -0.139025 
N     -0.174190    -0.263126     0.010385 
C     -0.061066    -0.040416    -0.083766 
C     -0.043021    -0.010666    -0.039018 
C     -0.014389    -0.013182    -0.046918 
C     -0.109006    -0.101951    -0.029308 
N     -0.019238    -0.041229     0.025723 
O     -0.060693    -0.052282     0.016743 
O     -0.033648     0.085183     0.023785 
F      0.125377     0.144580    -0.048471 
H     -0.005306     0.018789    -0.071899 
H      0.014636     0.014829    -0.071042 
H      0.019489     0.039071    -0.048299 
C      0.132604     0.104001     0.086180 
H      0.009374     0.057736    -0.024866 
H      0.128823     0.002437     0.270000 
H      0.056325     0.028546     0.049486 
S      0.384617     0.429294     0.120309 
 => Unit tangent is an approximation to the TS mode at the saddle point

Next a TS optimization is performed on the CI from the NEB run.

         *************************************************************
         *                       TS OPTIMIZATION                     *
         *************************************************************


Following output files will be written:
Converged TS will be written to          ....  TS_search_opt_without_h_NEB-TS_converged.xyz
                                         ....  TS_search_opt_without_h.xyz
Current trajectory will be written to    ....  TS_search_opt_without_h_trj.xyz
Initial Hessian will be stored in        ....  TS_search_opt_without_h.appr.hess
Geometry optimization settings:
Update method            Update   .... Bofill
Choice of coordinates    CoordSys .... Z-matrix Internals
Initial Hessian          InHess   .... Read

Convergence Tolerances:
Energy Change            TolE     ....  5.0000e-06 Eh
Max. Gradient            TolMAXG  ....  3.0000e-04 Eh/bohr
RMS Gradient             TolRMSG  ....  1.0000e-04 Eh/bohr
Max. Displacement        TolMAXD  ....  4.0000e-03 bohr
RMS Displacement         TolRMSD  ....  2.0000e-03 bohr
Strict Convergence                ....  False
------------------------------------------------------------------------------
                        ORCA OPTIMIZATION COORDINATE SETUP
------------------------------------------------------------------------------

The optimization will be done in new redundant internal coordinates
Making redundant internal coordinates   ...  (new redundants) done
Following TS mode number                ...     0
TS-active-atoms for coordinate setup... 0 17 
Evaluating the initial hessian          ... (Reading Exact Hessian)...  
InHessName: TS_search_opt_without_h.appr.hess	The file <TS_search_opt_without_h.appr.hess> is opened as a .hess file
done
done
Diagonalizing the Hessian               .... done
Dimension of the hessian                .... 181
Lowest eigenvalues of the non projected Hessian:
 -0.009071540 -0.000000000 -0.000000000 -0.000000000 -0.000000000
done
Evaluating the coordinates              ...  done
Calculating the B-matrix                .... done
Calculating the G-matrix                .... done
Diagonalizing the G-matrix              .... done
The first mode is                       ....  133
The number of degrees of freedom        ....   48

    -----------------------------------------------------------------
                    Redundant Internal Coordinates


    -----------------------------------------------------------------
         Definition                    Initial Value    d2E/dq (diagonal element)
    -----------------------------------------------------------------
      1. B(N   1,C   0)                  1.3353         0.192548   
      2. B(C   2,C   0)                  2.3016         0.123095   
      3. B(C   2,N   1)                  1.3283         0.317992   
      4. B(C   3,C   0)                  2.7765         0.103023   
      5. B(C   3,C   2)                  1.3930         0.445322   
      6. B(C   4,C   3)                  1.3804         0.484084   
      7. B(C   4,C   0)                  2.4368         0.108626   
      8. B(C   5,C   0)                  1.4269         0.132697   
      9. B(C   5,C   4)                  1.3885         0.288085   
     10. B(N   6,C   0)                  2.4917         0.087292   
     11. B(N   6,C   5)                  1.4287         0.233195   
     12. B(O   7,C   0)                  2.8077         0.065487   
     13. B(O   7,N   6)                  1.2203         0.684520   
     14. B(O   8,N   6)                  1.2295         0.900634   
     15. B(F   9,C   0)                  1.3649         0.282347   
     16. B(H  10,C   2)                  1.0871         0.364690   
     17. B(H  11,C   3)                  1.0829         0.370091   
     18. B(H  12,C   4)                  1.0845         0.367575   
     19. B(C  13,F   9)                  3.1654         0.032546   
     20. B(H  14,C  13)                  1.0938         0.204222   
     21. B(H  14,F   9)                  2.8861         0.029339   
     22. B(H  14,O   7)                  2.7344         0.040912   
     23. B(H  15,C  13)                  1.0949         0.234943   
     24. B(H  16,C  13)                  1.0943         0.241472   
     25. B(S  17,O   7)                  3.2918         0.013590   
     26. B(S  17,N   6)                  3.3733         0.025588   
     27. B(S  17,F   9)                  2.8399         0.046593   
     28. B(S  17,C   5)                  3.1634         0.044867   
     29. B(S  17,N   1)                  3.1580         0.065444   
     30. B(S  17,C   0)                  2.5022         0.001604   
     31. B(S  17,H  16)                  2.4634         0.057778   
     32. B(S  17,C  13)                  1.8304         0.086726   
     33. B(S  17,H  15)                  2.4299         0.071332   
     34. B(S  17,H  14)                  2.4612         0.060604   
     35. A(N   1,C   0,F   9)          112.6412         0.010415   
     36. A(C   5,C   0,F   9)          118.6348         0.009856   
     37. A(N   1,C   0,C   5)          119.3751         0.019220   
     38. A(C   5,C   0,S  17)          103.8523         0.006614   
     39. A(N   1,C   0,S  17)          106.7789         0.008720   
     40. A(F   9,C   0,S  17)           89.5066         0.006527   
     41. A(C   2,N   1,S  17)          130.2545         0.019553   
     42. A(C   0,N   1,C   2)          119.5589         0.025026   
     43. A(C   0,N   1,S  17)           49.3413         0.004997   
     44. A(N   1,C   2,H  10)          115.8398         0.193720   
     45. A(N   1,C   2,C   3)          124.4490         0.057974   
     46. A(C   3,C   2,H  10)          119.6613         0.193279   
     47. A(C   4,C   3,H  11)          121.9025         0.194225   
     48. A(C   2,C   3,C   4)          116.8866         0.064886   
     49. A(C   2,C   3,H  11)          121.2086         0.193653   
     50. A(C   3,C   4,H  12)          121.5549         0.191592   
     51. A(C   3,C   4,C   5)          119.3459         0.053573   
     52. A(C   5,C   4,H  12)          119.0763         0.191093   
     53. A(C   0,C   5,N   6)          121.5161         0.031758   
     54. A(C   0,C   5,C   4)          119.8831         0.020533   
     55. A(N   6,C   5,S  17)           85.7540         0.013590   
     56. A(C   4,C   5,S  17)          133.9411         0.015389   
     57. A(C   0,C   5,S  17)           50.1743         0.003144   
     58. A(C   4,C   5,N   6)          118.4597         0.038412   
     59. A(O   7,N   6,O   8)          122.4519         0.251627   
     60. A(C   5,N   6,O   8)          118.3451         0.244716   
     61. A(C   5,N   6,O   7)          119.1723         0.071357   
     62. A(C   0,F   9,S  17)           61.7693         0.004812   
     63. A(C   0,F   9,C  13)           96.0820         0.007158   
     64. A(C  13,F   9,S  17)           34.9608         0.002855   
     65. A(F   9,C  13,H  16)           89.7194         0.022418   
     66. A(H  16,C  13,S  17)          112.3060         0.036962   
     67. A(H  15,C  13,S  17)          109.7595         0.011980   
     68. A(H  14,C  13,S  17)          112.1669         0.028387   
     69. A(F   9,C  13,S  17)           62.7554         0.006461   
     70. A(H  15,C  13,H  16)          107.2461         0.042688   
     71. A(F   9,C  13,H  15)          163.0128         0.017315   
     72. A(H  14,C  13,H  16)          107.8964         0.031197   
     73. A(F   9,C  13,H  14)           65.3630         0.012613   
     74. A(H  14,C  13,H  15)          107.2174         0.013659   
     75. A(C   0,S  17,C  13)          110.3584         0.011756   
     76. A(C   5,S  17,F   9)           46.7702         0.009078   
     77. A(N   1,S  17,F   9)           43.6016         0.010478   
     78. A(C   0,S  17,F   9)           28.7240         0.009889   
     79. A(F   9,S  17,C  13)           82.2838         0.008433   
     80. A(N   1,S  17,C   5)           44.3319         0.006559   
     81. A(C   0,S  17,C   5)           25.9734         0.003839   
     82. A(C   5,S  17,C  13)          115.4807         0.012023   
     83. A(C   0,S  17,N   1)           23.8798         0.005014   
     84. A(N   1,S  17,C  13)          122.8970         0.012251   
     85. D(S  17,N   1,C   0,F   9)    -96.6624         0.008361   
     86. D(C   2,N   1,C   0,F   9)    143.8551         0.011398   
     87. D(S  17,N   1,C   0,C   5)    117.1733         0.007678   
     88. D(C   2,N   1,C   0,S  17)   -119.4826         0.012812   
     89. D(C   2,N   1,C   0,C   5)     -2.3093         0.011076   
     90. D(C   3,C   2,N   1,S  17)    -64.3719         0.013152   
     91. D(H  10,C   2,N   1,C   0)    178.1308         0.012998   
     92. D(H  10,C   2,N   1,S  17)    118.2157         0.015250   
     93. D(C   3,C   2,N   1,C   0)     -4.4568         0.013578   
     94. D(H  11,C   3,C   2,H  10)      5.5551         0.013391   
     95. D(C   4,C   3,C   2,H  10)   -174.9924         0.011898   
     96. D(C   4,C   3,C   2,N   1)      7.6877         0.011384   
     97. D(H  11,C   3,C   2,N   1)   -171.7647         0.011587   
     98. D(C   5,C   4,C   3,C   2)     -4.0055         0.009041   
     99. D(H  12,C   4,C   3,H  11)     -2.7991         0.012130   
    100. D(C   5,C   4,C   3,H  11)    175.4429         0.010810   
    101. D(H  12,C   4,C   3,C   2)    177.7525         0.009428   
    102. D(S  17,C   5,C   4,H  12)   -122.0760         0.011242   
    103. D(N   6,C   5,C   4,C   3)    173.5551         0.008359   
    104. D(S  17,C   5,C   4,C   3)     59.6380         0.010400   
    105. D(S  17,C   5,C   0,F   9)     97.1539         0.007001   
    106. D(S  17,C   5,C   0,N   1)   -118.6854         0.008846   
    107. D(N   6,C   5,C   4,H  12)     -8.1590         0.008997   
    108. D(N   6,C   5,C   0,S  17)    -51.3589         0.004236   
    109. D(C   0,C   5,C   4,C   3)     -2.1932         0.009958   
    110. D(C   0,C   5,C   4,H  12)    176.0927         0.010093   
    111. D(C   4,C   5,C   0,N   1)      5.5708         0.010246   
    112. D(C   4,C   5,C   0,F   9)   -138.5899         0.010867   
    113. D(N   6,C   5,C   0,N   1)   -170.0443         0.006692   
    114. D(N   6,C   5,C   0,F   9)     45.7951         0.006407   
    115. D(C   4,C   5,C   0,S  17)    124.2562         0.009691   
    116. D(O   8,N   6,C   5,S  17)    118.9407         0.008696   
    117. D(O   8,N   6,C   5,C   4)    -19.7566         0.010834   
    118. D(O   8,N   6,C   5,C   0)    155.9190         0.009389   
    119. D(O   7,N   6,C   5,S  17)    -59.0944         0.009559   
    120. D(O   7,N   6,C   5,C   4)    162.2083         0.013221   
    121. D(O   7,N   6,C   5,C   0)    -22.1161         0.012165   
    122. D(C  13,F   9,C   0,C   5)    -98.6047         0.007076   
    123. D(C  13,F   9,C   0,S  17)      6.9460         0.001140   
    124. D(S  17,F   9,C   0,C   5)   -105.5507         0.007038   
    125. D(C  13,F   9,C   0,N   1)    114.9573         0.009727   
    126. D(S  17,F   9,C   0,N   1)    108.0113         0.010429   
    127. D(S  17,C  13,F   9,C   0)    -10.7161         0.002401   
    128. D(H  16,C  13,F   9,S  17)   -115.4322         0.025458   
    129. D(H  14,C  13,F   9,S  17)    134.6713         0.017021   
    130. D(H  14,C  13,F   9,C   0)    123.9552         0.018048   
    131. D(H  15,C  13,F   9,C   0)     56.7018         0.010014   
    132. D(H  16,C  13,F   9,C   0)   -126.1483         0.024886   
    133. D(H  15,C  13,F   9,S  17)     67.4179         0.011916   
    134. D(C   5,S  17,N   1,C   0)    -30.0271         0.007696   
    135. D(C   0,S  17,N   1,C   2)     97.1734         0.020625   
    136. D(C  13,S  17,N   1,C   2)    161.2219         0.020952   
    137. D(F   9,S  17,C   0,C   5)    119.4376         0.010435   
    138. D(F   9,S  17,C   0,N   1)   -113.5466         0.011089   
    139. D(C   5,S  17,C   0,F   9)   -119.4376         0.010435   
    140. D(C   5,S  17,C   0,N   1)    127.0158         0.014136   
    141. D(N   1,S  17,C   0,F   9)    113.5466         0.011089   
    142. D(C  13,S  17,N   1,C   0)     64.0485         0.011502   
    143. D(N   1,S  17,C   0,C   5)   -127.0158         0.014136   
    144. D(C  13,S  17,C   0,F   9)    -12.8157         0.003313   
    145. D(C  13,S  17,C   0,C   5)    106.6219         0.008717   
    146. D(C   5,S  17,N   1,C   2)     67.1463         0.020752   
    147. D(C  13,S  17,C   0,N   1)   -126.3623         0.008546   
    148. D(F   9,S  17,C  13,H  16)     77.4554         0.011628   
    149. D(F   9,S  17,C  13,H  15)   -163.3434         0.013471   
    150. D(C   5,S  17,C  13,F   9)     33.8775         0.005090   
    151. D(C   5,S  17,C  13,H  16)    111.3329         0.013493   
    152. D(C   5,S  17,C  13,H  15)   -129.4659         0.013815   
    153. D(N   1,S  17,C  13,F   9)    -16.6701         0.005660   
    154. D(N   1,S  17,C  13,H  16)     60.7853         0.013569   
    155. D(N   1,S  17,C  13,H  15)    179.9865         0.015399   
    156. D(C   0,S  17,C  13,F   9)      6.1756         0.001254   
    157. D(C   0,S  17,C  13,H  16)     83.6310         0.011436   
    158. D(C   0,S  17,C  13,H  15)   -157.1678         0.012334   
    159. D(C   0,S  17,C  13,H  14)    -38.0914         0.007437   
    160. D(C   5,S  17,F   9,C  13)   -136.3202         0.008118   
    161. D(C   5,S  17,F   9,C   0)     31.5657         0.008304   
    162. D(N   1,S  17,F   9,C  13)    159.5581         0.008673   
    163. D(N   1,S  17,F   9,C   0)    -32.5560         0.010684   
    164. D(C   0,S  17,F   9,C  13)   -167.8859         0.003161   
    165. D(C  13,S  17,F   9,C   0)    167.8859         0.003161   
    166. D(F   9,S  17,C   5,N   6)    103.0505         0.016125   
    167. D(F   9,S  17,C   5,C   4)   -130.6443         0.023357   
    168. D(F   9,S  17,C   5,C   0)    -35.0603         0.009803   
    169. D(N   1,S  17,C   5,N   6)    165.6626         0.014325   
    170. D(N   1,S  17,C  13,H  14)    -60.9372         0.009443   
    171. D(N   1,S  17,C   5,C   4)    -68.0322         0.020553   
    172. D(N   1,S  17,C   5,C   0)     27.5518         0.007401   
    173. D(C   0,S  17,C   5,N   6)    138.1109         0.013164   
    174. D(C   5,S  17,C  13,H  14)    -10.3895         0.009570   
    175. D(C   0,S  17,C   5,C   4)    -95.5839         0.018427   
    176. D(C  13,S  17,C   5,N   6)     53.7522         0.013170   
    177. D(C  13,S  17,C   5,C   4)   -179.9426         0.018395   
    178. D(F   9,S  17,C  13,H  14)    -44.2671         0.007605   
    179. D(C  13,S  17,C   5,C   0)    -84.3587         0.008902   
    180. D(F   9,S  17,N   1,C   2)    136.8794         0.027370   
    181. D(F   9,S  17,N   1,C   0)     39.7060         0.011101   
    -----------------------------------------------------------------

Number of atoms                         .... 18
Number of degrees of freedom            .... 181

         *************************************************************
         *                GEOMETRY OPTIMIZATION CYCLE   1            *
         *************************************************************


           ************************************************************
           *        Program running with 24 parallel MPI-processes    *
           *              working on a common directory               *
           ************************************************************
------------------------------------------------------------------------------
                           ORCA GTO INTEGRAL CALCULATION
                           -- RI-GTO INTEGRALS CHOSEN --
------------------------------------------------------------------------------
------------------------------------------------------------------------------
                   ___                                                        
                  /   \      - P O W E R E D   B Y -                         
                 /     \                                                     
                 |  |  |   _    _      __       _____    __    __             
                 |  |  |  | |  | |    /  \     |  _  \  |  |  /  |          
                  \  \/   | |  | |   /    \    | | | |  |  | /  /          
                 / \  \   | |__| |  /  /\  \   | |_| |  |  |/  /          
                |  |  |   |  __  | /  /__\  \  |    /   |      \           
                |  |  |   | |  | | |   __   |  |    \   |  |\   \          
                \     /   | |  | | |  |  |  |  | |\  \  |  | \   \       
                 \___/    |_|  |_| |__|  |__|  |_| \__\ |__|  \__/        
                                                                              
                      - O R C A' S   B I G   F R I E N D -                    
                                      &                                       
                       - I N T E G R A L  F E E D E R -                       
                                                                              
 v1 FN, 2020, v2 2021                                                         
------------------------------------------------------------------------------


Reading SHARK input file TS_search_opt_without_h.SHARKINP.tmp ... ok
----------------------
SHARK INTEGRAL PACKAGE
----------------------

Number of atoms                             ...     18
Number of basis functions                   ...    314
Number of shells                            ...    154
Maximum angular momentum                    ...      2
Integral batch strategy                     ... SHARK/LIBINT Hybrid
RI-J (if used) integral strategy            ... SPLIT-RIJ (Revised 2003 algorithm where possible)
Printlevel                                  ...      1
Contraction scheme used                     ... SEGMENTED contraction
Coulomb Range Separation                    ... NOT USED
Exchange Range Separation                   ... Long Range
   Mu parameter                             ...  0.300000
   Scaling (regular/separated)              ...  0.157706  0.842294
Finite Nucleus Model                        ... NOT USED
Auxiliary Coulomb fitting basis             ... AVAILABLE
   # of basis functions in Aux-J            ...    656
   # of shells in Aux-J                     ...    212
   Maximum angular momentum in Aux-J        ...      4
Auxiliary J/K fitting basis                 ... NOT available
Auxiliary Correlation fitting basis         ... NOT available
Auxiliary 'external' fitting basis          ... NOT available
Integral threshold                          ...     2.500000e-11
Primitive cut-off                           ...     2.500000e-12
Primitive pair pre-selection threshold      ...     2.500000e-12

Calculating pre-screening integrals         ... done (  0.1 sec) Dimension = 154
Organizing shell pair data                  ... done (  0.1 sec)
Shell pair information
Total number of shell pairs                 ...     11935
Shell pairs after pre-screening             ...     10286
Total number of primitive shell pairs       ...     38500
Primitive shell pairs kept                  ...     23504
          la=0 lb=0:   3142 shell pairs
          la=1 lb=0:   4201 shell pairs
          la=1 lb=1:   1434 shell pairs
          la=2 lb=0:    845 shell pairs
          la=2 lb=1:    594 shell pairs
          la=2 lb=2:     70 shell pairs

Calculating one electron integrals          ... done (  0.0 sec)
Calculating RI/J V-Matrix + Cholesky decomp.... done (  0.1 sec)
Calculating Nuclear repulsion               ... done (  0.0 sec) ENN=    813.932090746252 Eh

SHARK setup successfully completed in   0.4 seconds

Maximum memory used throughout the entire GTOINT-calculation: 17.1 MB


           ************************************************************
           *        Program running with 24 parallel MPI-processes    *
           *              working on a common directory               *
           ************************************************************
-------------------------------------------------------------------------------
                                 ORCA SCF
-------------------------------------------------------------------------------

------------
SCF SETTINGS
------------
Hamiltonian:
 Density Functional     Method          .... DFT(GTOs)
 Exchange Functional    Exchange        .... WB97X
 Correlation Functional Correlation     .... WB97X
 Gradients option       PostSCFGGA      .... off
 Hybrid DFT is turned on
   Fraction HF Exchange ScalHFX         ....  0.157706
   Scaling of DF-GGA-X  ScalDFX         ....  0.000000
   Scaling of DF-GGA-C  ScalDFC         ....  1.000000
   Scaling of DF-LDA-C  ScalLDAC        ....  1.000000
   Perturbative correction              ....  0.000000
   Density functional embedding theory  .... OFF
 Long-range corrected/Screened/Range-Separated Hybrid DFT is turned on
   Amount of maximum screened exact exchange              ....  0.842294
   Range separation parameter mu (erf(mu*r12)/r12)        ....  0.300000
 RI-approximation to the Coulomb term is turned on
   Number of AuxJ basis functions       .... 656
   RIJ-COSX (HFX calculated with COS-X)).... on


General Settings:
 Integral files         IntName         .... TS_search_opt_without_h
 Hartree-Fock type      HFTyp           .... RHF
 Total Charge           Charge          ....   -1
 Multiplicity           Mult            ....    1
 Number of Electrons    NEL             ....   98
 Basis Dimension        Dim             ....  314
 Nuclear Repulsion      ENuc            ....    813.9320907463 Eh

Convergence Acceleration:
 DIIS                   CNVDIIS         .... on
   Start iteration      DIISMaxIt       ....    12
   Startup error        DIISStart       ....  0.200000
   # of expansion vecs  DIISMaxEq       ....     5
   Bias factor          DIISBfac        ....   1.050
   Max. coefficient     DIISMaxC        ....  10.000
 Trust-Rad. Augm. Hess. CNVTRAH         .... auto
   Auto Start mean grad. ratio tolernc. ....  1.125000
   Auto Start start iteration           ....     1
   Auto Start num. interpolation iter.  ....    10
   Max. Number of Micro iterations      ....    16
   Max. Number of Macro iterations      .... Maxiter - #DIIS iter
   Number of Davidson start vectors     ....     2
   Converg. threshold I  (grad. norm)   ....   1.000e-05
   Converg. threshold II (energy diff.) ....   1.000e-08
   Grad. Scal. Fac. for Micro threshold ....   0.100
   Minimum threshold for Micro iter.    ....   0.010
   NR start threshold (gradient norm)   ....   0.001
   Initial trust radius                 ....   0.400
   Minimum AH scaling param. (alpha)    ....   1.000
   Maximum AH scaling param. (alpha)    .... 1000.000
   Orbital update algorithm             .... Taylor
   White noise on init. David. guess    .... on
   Maximum white noise                  ....   0.010
   Quad. conv. algorithm                .... NR
 SOSCF                  CNVSOSCF        .... on
   Start iteration      SOSCFMaxIt      ....   150
   Startup grad/error   SOSCFStart      ....  0.003300
 Level Shifting         CNVShift        .... on
   Level shift para.    LevelShift      ....    0.2500
   Turn off err/grad.   ShiftErr        ....    0.0010
 Zerner damping         CNVZerner       .... off
 Static damping         CNVDamp         .... on
   Fraction old density DampFac         ....    0.7000
   Max. Damping (<1)    DampMax         ....    0.9800
   Min. Damping (>=0)   DampMin         ....    0.0000
   Turn off err/grad.   DampErr         ....    0.1000
 Fernandez-Rico         CNVRico         .... off

SCF Procedure:
 Maximum # iterations   MaxIter         ....   125
 SCF integral mode      SCFMode         .... Direct
   Integral package                     .... SHARK and LIBINT hybrid scheme
 Reset frequency        DirectResetFreq ....    20
 Integral Threshold     Thresh          ....  2.500e-11 Eh
 Primitive CutOff       TCut            ....  2.500e-12 Eh

Convergence Tolerance:
 Convergence Check Mode ConvCheckMode   .... Total+1el-Energy
 Convergence forced     ConvForced      .... 0
 Energy Change          TolE            ....  1.000e-08 Eh
 1-El. energy change                    ....  1.000e-05 Eh
 Orbital Gradient       TolG            ....  1.000e-05
 Orbital Rotation angle TolX            ....  1.000e-05
 DIIS Error             TolErr          ....  5.000e-07


Diagonalization of the overlap matrix:
Smallest eigenvalue                        ... 2.850e-06
Time for diagonalization                   ...    0.021 sec
Threshold for overlap eigenvalues          ... 1.000e-08
Number of eigenvalues below threshold      ... 0
Time for construction of square roots      ...    0.063 sec
Total time needed                          ...    0.086 sec

---------------------
INITIAL GUESS: MOREAD
---------------------
Guess MOs are being read from file: TS_search_opt_without_h.gbw
Input Geometry matches current geometry (good)
Input basis set matches current basis set (good)
MOs were renormalized
MOs were reorthogonalized (Cholesky)
                      ------------------
                      INITIAL GUESS DONE (   0.0 sec)
                      ------------------
-------------------
DFT GRID GENERATION
-------------------

General Integration Accuracy     IntAcc      ... 4.388
Radial Grid Type                 RadialGrid  ... OptM3 with GC (2021)
Angular Grid (max. ang.)         AngularGrid ... 4 (Lebedev-302)
Angular grid pruning method      GridPruning ... 4 (adaptive)
Weight generation scheme         WeightScheme... Becke
Basis function cutoff            BFCut       ... 1.0000e-11
Integration weight cutoff        WCut        ... 1.0000e-14
Angular grids for H and He will be reduced by one unit
Partially contracted basis set               ... off
Rotationally invariant grid construction     ... off

Total number of grid points                  ...    97646
Total number of batches                      ...     1534
Average number of points per batch           ...       63
Average number of grid points per atom       ...     5425
Time for grid setup =    0.849 sec

--------------------
COSX GRID GENERATION
--------------------

GRIDX 1
-------
General Integration Accuracy     IntAcc      ... 3.816
Radial Grid Type                 RadialGrid  ... OptM3 with GC (2021)
Angular Grid (max. ang.)         AngularGrid ... 1 (Lebedev-50)
Angular grid pruning method      GridPruning ... 4 (adaptive)
Weight generation scheme         WeightScheme... Becke
Basis function cutoff            BFCut       ... 1.0000e-11
Integration weight cutoff        WCut        ... 1.0000e-14
Angular grids for H and He will be reduced by one unit
Partially contracted basis set               ... on
Rotationally invariant grid construction     ... off

Total number of grid points                  ...    12197
Total number of batches                      ...      197
Average number of points per batch           ...       61
Average number of grid points per atom       ...      678
UseSFitting                                  ... on

GRIDX 2
-------
General Integration Accuracy     IntAcc      ... 4.020
Radial Grid Type                 RadialGrid  ... OptM3 with GC (2021)
Angular Grid (max. ang.)         AngularGrid ... 2 (Lebedev-110)
Angular grid pruning method      GridPruning ... 4 (adaptive)
Weight generation scheme         WeightScheme... Becke
Basis function cutoff            BFCut       ... 1.0000e-11
Integration weight cutoff        WCut        ... 1.0000e-14
Angular grids for H and He will be reduced by one unit
Partially contracted basis set               ... on
Rotationally invariant grid construction     ... off

Total number of grid points                  ...    30541
Total number of batches                      ...      488
Average number of points per batch           ...       62
Average number of grid points per atom       ...     1697
UseSFitting                                  ... on

GRIDX 3
-------
General Integration Accuracy     IntAcc      ... 4.338
Radial Grid Type                 RadialGrid  ... OptM3 with GC (2021)
Angular Grid (max. ang.)         AngularGrid ... 3 (Lebedev-194)
Angular grid pruning method      GridPruning ... 4 (adaptive)
Weight generation scheme         WeightScheme... Becke
Basis function cutoff            BFCut       ... 1.0000e-11
Integration weight cutoff        WCut        ... 1.0000e-14
Angular grids for H and He will be reduced by one unit
Partially contracted basis set               ... on
Rotationally invariant grid construction     ... off

Total number of grid points                  ...    67855
Total number of batches                      ...     1072
Average number of points per batch           ...       63
Average number of grid points per atom       ...     3770
UseSFitting                                  ... on

Time for X-Grid setup             =    1.041 sec


--------------------
CPCM SOLVATION MODEL
--------------------
CPCM parameters:
  Epsilon                                         ...      78.3550
  Refrac                                          ...       1.3328
  Rsolv                                           ...       1.3000
  Surface type                                    ... GAUSSIAN VDW
  Epsilon function type                           ...         CPCM
Solvent:                                     ... WATER
SMD-CDS solvent descriptors:
  Soln                                       ...    1.3328
  Soln25                                     ...    1.3323
  Sola                                       ...    0.0000
  Solb                                       ...    0.0000
  Solg                                       ...    0.0000
  Solc                                       ...    0.0000
  Solh                                       ...    0.0000
Radii:
 Radius for C  used is    3.4960 Bohr (=   1.8500 Ang.)
 Radius for N  used is    3.5716 Bohr (=   1.8900 Ang.)
 Radius for O  used is    2.8724 Bohr (=   1.5200 Ang.)
 Radius for F  used is    3.2692 Bohr (=   1.7300 Ang.)
 Radius for H  used is    2.2677 Bohr (=   1.2000 Ang.)
 Radius for S  used is    4.7054 Bohr (=   2.4900 Ang.)
Calculating surface                               ...        done! (  0.0s)
GEPOL surface points                              ...         1076
GEPOL Volume                                      ...    1273.7950
GEPOL Surface-area                                ...     711.0072
Calculating surface distance matrix               ...        done! (  0.0s)
Performing Cholesky decomposition & store         ...        done! (  0.1s)
Overall time for CPCM initialization              ...                 0.1s
--------------
SCF ITERATIONS
--------------
ITER       Energy         Delta-E        Max-DP      RMS-DP      [F,P]     Damp
               ***  Starting incremental Fock matrix formation  ***
                      *** Initiating the SOSCF procedure ***
                      *** Re-Reading the Fockian *** 
                      *** Removing any level shift *** 
ITER      Energy       Delta-E        Grad      Rot      Max-DP    RMS-DP
  0   -990.26367336 -990.2636733599  0.000002  0.000002  0.036125  0.000202
               *** Restarting incremental Fock matrix formation ***
                  ***Gradient check signals convergence***
              ***Rediagonalizing the Fockian in SOSCF/NRSCF***

               *****************************************************
               *                     SUCCESS                       *
               *           SCF CONVERGED AFTER   1 CYCLES          *
               *****************************************************

Old exchange energy                            =    -28.483172422 Eh
New exchange energy                            =    -28.483168370 Eh
Exchange energy change after final integration =      0.000004051 Eh
Total energy after final integration           =   -990.263669309 Eh
Final COS-X integration done in                =     4.096 sec

SMD CDS free energy correction energy :                 5.15296     Kcal/mol
Total Energy after SMD CDS correction =              -990.255457549 Eh

----------------
TOTAL SCF ENERGY
----------------

Total Energy       :         -990.25545755 Eh          -26946.22092 eV

Components:
Nuclear Repulsion  :          813.93209075 Eh           22148.21818 eV
Electronic Energy  :        -1804.18754830 Eh          -49094.43910 eV
One Electron Energy:        -2992.44417816 Eh          -81428.54584 eV
Two Electron Energy:         1188.25662987 Eh           32334.10673 eV
Max COSX asymmetry :            0.00000316 Eh               0.00009 eV
CPCM Dielectric    :           -0.10333148 Eh              -2.81179 eV
SMD CDS (Gcds)     :            0.00821176 Eh               0.22345 eV

Virial components:
Potential Energy   :        -1978.33786817 Eh          -53833.31023 eV
Kinetic Energy     :          988.08241062 Eh           26887.08931 eV
Virial Ratio       :            2.00219926


DFT components:
N(Alpha)           :       48.999988081184 electrons
N(Beta)            :       48.999988081184 electrons
N(Total)           :       97.999976162369 electrons
E(XC)              :      -73.542384818076 Eh       
DFET-embed. en.    :        0.000000000000 Eh       
CPCM Solvation Model Properties:
Surface-charge          :            0.95190979
Charge-correction       :           -0.00594520 Eh              -0.16178 eV
Free-energy (cav+disp)  :            0.00821176 Eh               0.22345 eV

---------------
SCF CONVERGENCE
---------------

  Last Energy change         ...   -9.8646e-10  Tolerance :   1.0000e-08
  Last MAX-Density change    ...    3.5527e-15  Tolerance :   1.0000e-07
  Last RMS-Density change    ...    4.6098e-17  Tolerance :   5.0000e-09
  Last Orbital Gradient      ...    1.2621e-06  Tolerance :   1.0000e-05
  Last Orbital Rotation      ...    4.9645e-06  Tolerance :   1.0000e-05

             **** THE GBW FILE WAS UPDATED (TS_search_opt_without_h.gbw) ****
             **** DENSITY TS_search_opt_without_h.scfp WAS UPDATED ****
             **** ENERGY FILE WAS UPDATED (TS_search_opt_without_h.en.tmp) ****
             **** THE GBW FILE WAS UPDATED (TS_search_opt_without_h.gbw) ****
             **** DENSITY TS_search_opt_without_h.scfp WAS UPDATED ****
----------------
ORBITAL ENERGIES
----------------

  NO   OCC          E(Eh)            E(eV) 
   0   2.0000     -88.748834     -2414.9785 
   1   2.0000     -24.746512      -673.3868 
   2   2.0000     -19.234658      -523.4017 
   3   2.0000     -19.230280      -523.2825 
   4   2.0000     -14.645762      -398.5315 
   5   2.0000     -14.396541      -391.7498 
   6   2.0000     -10.413369      -283.3622 
   7   2.0000     -10.314910      -280.6830 
   8   2.0000     -10.311593      -280.5927 
   9   2.0000     -10.294501      -280.1276 
  10   2.0000     -10.260285      -279.1966 
  11   2.0000     -10.246343      -278.8172 
  12   2.0000      -7.944532      -216.1817 
  13   2.0000      -5.907552      -160.7527 
  14   2.0000      -5.901620      -160.5912 
  15   2.0000      -5.898944      -160.5184 
  16   2.0000      -1.378827       -37.5198 
  17   2.0000      -1.352513       -36.8038 
  18   2.0000      -1.193322       -32.4719 
  19   2.0000      -1.094562       -29.7845 
  20   2.0000      -0.985702       -26.8223 
  21   2.0000      -0.922760       -25.1096 
  22   2.0000      -0.848462       -23.0878 
  23   2.0000      -0.842745       -22.9323 
  24   2.0000      -0.771707       -20.9992 
  25   2.0000      -0.742710       -20.2102 
  26   2.0000      -0.695730       -18.9318 
  27   2.0000      -0.688690       -18.7402 
  28   2.0000      -0.672235       -18.2924 
  29   2.0000      -0.660239       -17.9660 
  30   2.0000      -0.650705       -17.7066 
  31   2.0000      -0.620097       -16.8737 
  32   2.0000      -0.596699       -16.2370 
  33   2.0000      -0.588784       -16.0216 
  34   2.0000      -0.537863       -14.6360 
  35   2.0000      -0.520585       -14.1658 
  36   2.0000      -0.506457       -13.7814 
[...]
      9      -0.000836   0.001951   0.108740   0.071282  -0.348461  -0.105476
     10       0.000653  -0.001223  -0.072431  -0.050566   0.233620   0.060404
     11       0.002763  -0.002564  -0.036060  -0.095486   0.098594  -0.162949
     12      -0.002404   0.001074   0.043167  -0.014260   0.222554   0.211872
     13       0.001394  -0.000498  -0.014229   0.009931  -0.157513  -0.122388
     14      -0.002902   0.002149   0.181187  -0.019377  -0.021565   0.295458
     15       0.003289  -0.001762  -0.082972   0.030225  -0.110829  -0.058300
     16      -0.003031   0.001127   0.042578  -0.006854   0.121854   0.011588
     17      -0.001693   0.001688  -0.143328   0.098029   0.245342  -0.268501
     18       0.000144  -0.000853  -0.058930   0.030780  -0.066283  -0.022383
     19      -0.001392   0.000108   0.014348  -0.178035   0.006033   0.032232
     20      -0.004277  -0.001408  -0.091079  -0.575318  -0.167119   0.064133
     21       0.000703   0.000349   0.045011   0.081547   0.032743   0.007843
     22       0.000032  -0.000012  -0.002165   0.022225   0.004310  -0.006196
     23       0.001655   0.001149   0.098323   0.270660   0.098355  -0.004759
     24      -0.001382   0.000450   0.012970  -0.106966   0.017376   0.013714
     25       0.001483  -0.000344  -0.010624   0.124084  -0.010091  -0.017471
     26       0.001965  -0.000212  -0.007604   0.187838   0.006964  -0.031494
     27      -0.000092   0.000180  -0.009939   0.013102  -0.007606   0.005534
     28      -0.000111   0.000167   0.007298  -0.011073   0.000157   0.003185
     29      -0.001111   0.000905   0.002809   0.012241   0.020160   0.003367
     30       0.000737  -0.000792  -0.165186   0.056871   0.116325   0.148381
     31       0.000220  -0.000120   0.109191  -0.054424  -0.057586  -0.095384
     32       0.009736  -0.009156   0.479616  -0.584123   0.243177  -0.468401
     33       0.007513  -0.007732  -0.496705  -0.032921   0.396029  -0.024398
     34      -0.005073   0.004889   0.339945   0.013880  -0.269440   0.006285
     35       0.000159   0.000556   0.189034  -0.075047  -0.183151  -0.238797
     36       0.009660  -0.006531  -0.302206  -0.022109   0.033275  -0.284076
     37      -0.005603   0.003960   0.195560   0.015573  -0.049312   0.180494
     38       0.011145  -0.006719  -0.203143  -0.050098  -0.307326  -0.293090
     39       0.052386  -0.028342   0.001468  -0.000795  -0.000138   0.002508
     40      -0.028186  -0.056097   0.000683   0.003903  -0.000477   0.002044
     41      -0.021495   0.007988  -0.001001  -0.000797  -0.000265  -0.002358
     42      -0.528243   0.437624  -0.018994   0.008697   0.001157  -0.011034
     43      -0.211998   0.000898  -0.002379   0.014866   0.001370   0.001116
     44      -0.084943  -0.357872   0.011282   0.032866   0.001746   0.008063
     45      -0.451896  -0.209996  -0.003739   0.024359  -0.000529  -0.007599
     46       0.520378   0.056295   0.006991  -0.025753  -0.000563   0.000651
     47       0.036934   0.338174  -0.003933   0.006433   0.002119   0.029903
     48       0.273387   0.150909   0.003465  -0.010254   0.001616   0.010164
     49       0.074282   0.696470  -0.012306  -0.028021   0.004813  -0.005182
     50       0.328034  -0.081064   0.010037  -0.000233   0.000151   0.011262
     51       0.002610  -0.001364  -0.000628   0.001434  -0.001563   0.003069
     52      -0.001329  -0.002626   0.001178  -0.002506   0.000060   0.003858
     53      -0.000700   0.000313   0.000317   0.000002   0.000491   0.000577
                 48         49         50         51         52         53    
      0       0.000542   0.000198   0.000200  -0.001004   0.000141   0.000050
      1       0.000636   0.000267   0.000292   0.000076  -0.000334  -0.000039
      2      -0.000098  -0.000111  -0.000365  -0.001284  -0.000018  -0.000449
      3      -0.000233  -0.000153  -0.000069  -0.000567   0.000270  -0.000082
      4      -0.000026  -0.000010  -0.000001   0.000337  -0.000112   0.000004
      5      -0.000158  -0.000128  -0.000032  -0.000766   0.000427  -0.000270
      6      -0.000079  -0.000068   0.000004   0.075086  -0.011648   0.007791
      7       0.000025   0.000004  -0.000033  -0.039712   0.006374  -0.004342
      8       0.000186   0.000153   0.000086   0.016634   0.000014  -0.000872
      9       0.000056   0.000061   0.000055  -0.005989  -0.016356   0.018030
     10       0.000002  -0.000026  -0.000034   0.003037   0.006083  -0.008201
     11      -0.000065  -0.000036  -0.000016  -0.010674  -0.065111   0.053311
     12      -0.000020  -0.000028  -0.000056  -0.000918  -0.028084  -0.040699
     13      -0.000008   0.000004   0.000021   0.000757   0.023137   0.032673
     14       0.000049  -0.000035  -0.000036   0.001022   0.039525   0.046989
     15       0.000093   0.000106   0.000058  -0.000103  -0.000379  -0.000789
     16      -0.000255  -0.000161  -0.000136   0.000182   0.000090   0.000280
     17      -0.000016   0.000023   0.000094   0.000440  -0.001834  -0.003237
     18      -0.000281  -0.000175  -0.000170  -0.000148  -0.000374  -0.000481
     19       0.000187   0.000107   0.000114   0.000068   0.000367   0.000488
     20       0.000023  -0.000042  -0.000036  -0.000047   0.000705   0.000803
     21       0.000007   0.000047  -0.000010   0.000043   0.000094   0.000175
     22      -0.000055   0.000015  -0.000003  -0.000016  -0.000052  -0.000105
     23       0.000077   0.000068   0.000129   0.000062  -0.000020   0.000010
     24       0.000116   0.000060   0.000081   0.000051  -0.000144  -0.000113
     25      -0.000075  -0.000044  -0.000029  -0.000050   0.000011  -0.000032
     26      -0.000105  -0.000050  -0.000069  -0.000070  -0.000526  -0.000566
     27       0.000025  -0.000008   0.000097   0.000060   0.000010  -0.000003
     28      -0.000051  -0.000020   0.000003  -0.000019   0.000038  -0.000007
     29       0.000236   0.000101   0.000287   0.000176  -0.000009   0.000051
     30       0.000887   0.000394  -0.000391  -0.852106   0.115475  -0.070901
     31      -0.000424  -0.000239   0.000244   0.447790  -0.060895   0.037446
     32       0.000205   0.000094  -0.000093  -0.201086   0.023828  -0.013555
     33       0.000045  -0.000036   0.000026   0.046937   0.208993  -0.171835
     34       0.000055   0.000016   0.000022  -0.019724  -0.082847   0.068846
     35      -0.000084  -0.000104   0.000046   0.149343   0.730887  -0.589335
     36       0.000071  -0.000151   0.000135   0.011458   0.348064   0.435861
     37      -0.000070   0.000081  -0.000082  -0.009164  -0.282197  -0.353383
     38      -0.000176   0.000182  -0.000156  -0.013955  -0.435037  -0.537299
     39      -0.006890   0.091764  -0.014113   0.000077   0.000033   0.000023
     40       0.000148   0.013943   0.092842  -0.000017  -0.000005  -0.000003
     41      -0.045923  -0.015337   0.005413  -0.000060   0.000013  -0.000001
     42       0.157997  -0.004168   0.232448   0.000002  -0.000084  -0.000057
     43      -0.522523   0.082543  -0.757588  -0.000126   0.000235   0.000212
     44       0.131510  -0.024335   0.210037   0.000084  -0.000020  -0.000092
     45       0.420932  -0.486219  -0.345271   0.000364  -0.000165  -0.000010
     46       0.367581  -0.439625  -0.281843   0.000251  -0.000117  -0.000122
     47       0.124424  -0.162316  -0.106274   0.000367   0.000014   0.000020
     48      -0.497272  -0.596716   0.277156  -0.000862   0.000026  -0.000092
     49       0.150483   0.189862  -0.064969   0.000243  -0.000014   0.000037
     50       0.291287   0.368215  -0.167587   0.000601  -0.000009   0.000050
     51      -0.000091  -0.000212   0.000041   0.000043   0.000017  -0.000008
     52      -0.000026  -0.000011  -0.000141   0.000052   0.000034  -0.000008
     53      -0.000087   0.000040  -0.000096   0.000010   0.000002  -0.000004


-----------
IR SPECTRUM
-----------

 Mode   freq       eps      Int      T**2         TX        TY        TZ
       cm**-1   L/(mol*cm) km/mol    a.u.
----------------------------------------------------------------------------
  7:     27.73   0.001807    9.13  0.020334  (-0.106910  0.084711  0.041573)
  8:     49.25   0.000610    3.08  0.003868  ( 0.000667  0.055717  0.027629)
  9:     61.61   0.000769    3.88  0.003894  (-0.061169  0.003196  0.011908)
 10:     75.67   0.002739   13.84  0.011295  ( 0.076797  0.068977  0.025286)
 11:    116.60   0.000692    3.50  0.001852  ( 0.013339 -0.036195 -0.019087)
 12:    138.17   0.001341    6.78  0.003029  ( 0.033352  0.043624 -0.003669)
 13:    185.09   0.001487    7.52  0.002507  ( 0.025513  0.043072 -0.001087)
 14:    243.29   0.000964    4.87  0.001237  (-0.012295  0.032133 -0.007298)
 15:    287.81   0.002980   15.06  0.003231  ( 0.019033  0.046538  0.026508)
 16:    388.77   0.000115    0.58  0.000093  (-0.003676 -0.005103 -0.007280)
 17:    403.32   0.030319  153.22  0.023459  (-0.022838 -0.143543 -0.048297)
 18:    443.27   0.042064  212.57  0.029613  (-0.064070 -0.146703 -0.063139)
 19:    464.44   0.003484   17.61  0.002341  (-0.018412  0.034842  0.028076)
 20:    567.82   0.002943   14.88  0.001618  (-0.005491  0.022105 -0.033149)
 21:    585.94   0.007066   35.71  0.003763  ( 0.049863  0.028686  0.021306)
 22:    672.71   0.090289  456.29  0.041884  (-0.083097 -0.175041 -0.065876)
 23:    685.00   0.043080  217.71  0.019626  ( 0.034119  0.135822 -0.003799)
 24:    748.65   0.000699    3.53  0.000291  ( 0.002432 -0.004034  0.016410)
 25:    755.43   0.025816  130.47  0.010665  (-0.051618 -0.089384  0.003277)
 26:    811.21   0.002162   10.92  0.000832  (-0.007650 -0.021373  0.017782)
 27:    831.38   0.010393   52.52  0.003901  (-0.036054 -0.050922  0.002840)
 28:    901.32   0.018921   95.62  0.006551  ( 0.057833 -0.046061  0.032934)
 29:    958.00   0.006801   34.37  0.002215  (-0.006366  0.046600  0.001813)
 30:    979.71   0.001479    7.48  0.000471  (-0.020123  0.005436  0.006059)
 31:   1006.08   0.000089    0.45  0.000028  ( 0.002674 -0.004496 -0.000525)
 32:   1014.87   0.002000   10.11  0.000615  ( 0.023781  0.006521  0.002639)
 33:   1066.32   0.127796  645.83  0.037400  (-0.102978  0.157781  0.043596)
 34:   1099.12   0.043540  220.03  0.012362  ( 0.058027 -0.091830  0.023706)
 35:   1178.87   0.011217   56.69  0.002969  (-0.048483  0.000196  0.024875)
 36:   1184.67   0.255481  1291.09  0.067298  ( 0.152319 -0.180730 -0.106930)
 37:   1268.02   0.033372  168.65  0.008213  (-0.042671  0.079900  0.002844)
 38:   1290.98   0.208438  1053.36  0.050385  ( 0.150104 -0.166460  0.012028)
 39:   1355.72   0.005822   29.42  0.001340  (-0.015101  0.005560 -0.032882)
 40:   1396.70   0.145410  734.84  0.032489  ( 0.127519 -0.121087  0.039569)
 41:   1429.60   0.041092  207.66  0.008970  (-0.068728 -0.001096 -0.065154)
 42:   1459.04   0.002021   10.21  0.000432  (-0.018685  0.008200 -0.003995)
 43:   1470.50   0.001990   10.06  0.000422  ( 0.008664  0.018614  0.000882)
 44:   1486.83   0.015359   77.62  0.003224  ( 0.013156 -0.020277 -0.051376)
 45:   1542.28   0.165017  833.93  0.033389  (-0.042532 -0.021509 -0.176402)
 46:   1625.40   0.085939  434.30  0.016500  ( 0.071966 -0.069541 -0.080527)
 47:   1659.87   0.117085  591.70  0.022013  ( 0.068974  0.018654  0.130027)
 48:   3050.21   0.022868  115.56  0.002340  (-0.008223 -0.003243 -0.047555)
 49:   3130.48   0.006096   30.81  0.000608  ( 0.023142 -0.000314 -0.008490)
 50:   3134.42   0.004325   21.86  0.000431  (-0.005224  0.020022 -0.001552)
 51:   3205.19   0.005038   25.46  0.000490  ( 0.018757 -0.006956  0.009501)
 52:   3246.94   0.000332    1.68  0.000032  ( 0.003328 -0.000043 -0.004568)
 53:   3258.74   0.000961    4.85  0.000092  ( 0.006549 -0.006558 -0.002471)

* The epsilon (eps) is given for a Dirac delta lineshape.
** The dipole moment derivative (T) already includes vibrational overlap.

The first frequency considered to be a vibration is 7
The total number of vibrations considered is 47


--------------------------
THERMOCHEMISTRY AT 298.15K
--------------------------

Temperature         ... 298.15 K
Pressure            ... 1.00 atm
Total Mass          ... 189.18 AMU

Throughout the following assumptions are being made:
  (1) The electronic state is orbitally nondegenerate
  (2) There are no thermally accessible electronically excited states
  (3) Hindered rotations indicated by low frequency modes are not
      treated as such but are treated as vibrations and this may
      cause some error
  (4) All equations used are the standard statistical mechanics
      equations for an ideal gas
  (5) All vibrations are strictly harmonic

freq.      27.73  E(vib)   ...       0.55 
freq.      49.25  E(vib)   ...       0.52 
freq.      61.61  E(vib)   ...       0.51 
freq.      75.67  E(vib)   ...       0.49 
freq.     116.60  E(vib)   ...       0.44 
freq.     138.17  E(vib)   ...       0.42 
freq.     185.09  E(vib)   ...       0.37 
freq.     243.29  E(vib)   ...       0.31 
freq.     287.81  E(vib)   ...       0.27 
freq.     388.77  E(vib)   ...       0.20 
freq.     403.32  E(vib)   ...       0.19 
freq.     443.27  E(vib)   ...       0.17 
freq.     464.44  E(vib)   ...       0.16 
freq.     567.82  E(vib)   ...       0.11 
freq.     585.94  E(vib)   ...       0.11 
freq.     672.71  E(vib)   ...       0.08 
freq.     685.00  E(vib)   ...       0.07 
freq.     748.65  E(vib)   ...       0.06 
freq.     755.43  E(vib)   ...       0.06 
freq.     811.21  E(vib)   ...       0.05 
freq.     831.38  E(vib)   ...       0.04 
freq.     901.32  E(vib)   ...       0.03 
freq.     958.00  E(vib)   ...       0.03 
freq.     979.71  E(vib)   ...       0.03 
freq.    1006.08  E(vib)   ...       0.02 
freq.    1014.87  E(vib)   ...       0.02 
freq.    1066.32  E(vib)   ...       0.02 
freq.    1099.12  E(vib)   ...       0.02 
freq.    1178.87  E(vib)   ...       0.01 
freq.    1184.67  E(vib)   ...       0.01 
freq.    1268.02  E(vib)   ...       0.01 
freq.    1290.98  E(vib)   ...       0.01 
freq.    1355.72  E(vib)   ...       0.01 
freq.    1396.70  E(vib)   ...       0.00 
freq.    1429.60  E(vib)   ...       0.00 
freq.    1459.04  E(vib)   ...       0.00 
freq.    1470.50  E(vib)   ...       0.00 
freq.    1486.83  E(vib)   ...       0.00 
freq.    1542.28  E(vib)   ...       0.00 
freq.    1625.40  E(vib)   ...       0.00 
freq.    1659.87  E(vib)   ...       0.00 
freq.    3050.21  E(vib)   ...       0.00 
freq.    3130.48  E(vib)   ...       0.00 
freq.    3134.42  E(vib)   ...       0.00 
freq.    3205.19  E(vib)   ...       0.00 
freq.    3246.94  E(vib)   ...       0.00 
freq.    3258.74  E(vib)   ...       0.00 

------------
INNER ENERGY
------------

The inner energy is: U= E(el) + E(ZPE) + E(vib) + E(rot) + E(trans)
    E(el)   - is the total energy from the electronic structure calculation
              = E(kin-el) + E(nuc-el) + E(el-el) + E(nuc-nuc)
    E(ZPE)  - the the zero temperature vibrational energy from the frequency calculation
    E(vib)  - the the finite temperature correction to E(ZPE) due to population
              of excited vibrational states
    E(rot)  - is the rotational thermal energy
    E(trans)- is the translational thermal energy

Summary of contributions to the inner energy U:
Electronic energy                ...   -990.26639478 Eh
Zero point energy                ...      0.12061315 Eh      75.69 kcal/mol
Thermal vibrational correction   ...      0.00863570 Eh       5.42 kcal/mol
Thermal rotational correction    ...      0.00141627 Eh       0.89 kcal/mol
Thermal translational correction ...      0.00141627 Eh       0.89 kcal/mol
-----------------------------------------------------------------------
Total thermal energy                   -990.13431339 Eh


Summary of corrections to the electronic energy:
(perhaps to be used in another calculation)
Total thermal correction                  0.01146824 Eh       7.20 kcal/mol
Non-thermal (ZPE) correction              0.12061315 Eh      75.69 kcal/mol
-----------------------------------------------------------------------
Total correction                          0.13208139 Eh      82.88 kcal/mol


--------
ENTHALPY
--------

The enthalpy is H = U + kB*T
                kB is Boltzmann's constant
Total free energy                 ...   -990.13431339 Eh 
Thermal Enthalpy correction       ...      0.00094421 Eh       0.59 kcal/mol
-----------------------------------------------------------------------
Total Enthalpy                    ...   -990.13336918 Eh


Note: Only C1 symmetry has been detected, increase convergence thresholds 
      if your molecule has a higher symmetry. Symmetry factor of 1.0 is   
      used for the rotational entropy correction. 
 

Note: Rotational entropy computed according to Herzberg 
Infrared and Raman Spectra, Chapter V,1, Van Nostrand Reinhold, 1945 
Point Group:  C1, Symmetry Number:   1  
Rotational constants in cm-1:     0.032574     0.027744     0.019217 

Vibrational entropy computed according to the QRRHO of S. Grimme
Chem.Eur.J. 2012 18 9955


-------
ENTROPY
-------

The entropy contributions are T*S = T*(S(el)+S(vib)+S(rot)+S(trans))
     S(el)   - electronic entropy
     S(vib)  - vibrational entropy
     S(rot)  - rotational entropy
     S(trans)- translational entropy
The entropies will be listed as multiplied by the temperature to get
units of energy

Electronic entropy                ...      0.00000000 Eh      0.00 kcal/mol
Vibrational entropy               ...      0.01562991 Eh      9.81 kcal/mol
Rotational entropy                ...      0.01468538 Eh      9.22 kcal/mol
Translational entropy             ...      0.01977419 Eh     12.41 kcal/mol
-----------------------------------------------------------------------
Final entropy term                ...      0.05008947 Eh     31.43 kcal/mol

In case the symmetry of your molecule has not been determined correctly
or in case you have a reason to use a different symmetry number we print 
out the resulting rotational entropy values for sn=1,12 :
 --------------------------------------------------------
|  sn= 1 | S(rot)=       0.01468538 Eh      9.22 kcal/mol|
|  sn= 2 | S(rot)=       0.01403092 Eh      8.80 kcal/mol|
|  sn= 3 | S(rot)=       0.01364809 Eh      8.56 kcal/mol|
|  sn= 4 | S(rot)=       0.01337646 Eh      8.39 kcal/mol|
|  sn= 5 | S(rot)=       0.01316577 Eh      8.26 kcal/mol|
|  sn= 6 | S(rot)=       0.01299363 Eh      8.15 kcal/mol|
|  sn= 7 | S(rot)=       0.01284808 Eh      8.06 kcal/mol|
|  sn= 8 | S(rot)=       0.01272201 Eh      7.98 kcal/mol|
|  sn= 9 | S(rot)=       0.01261080 Eh      7.91 kcal/mol|
|  sn=10 | S(rot)=       0.01251132 Eh      7.85 kcal/mol|
|  sn=11 | S(rot)=       0.01242133 Eh      7.79 kcal/mol|
|  sn=12 | S(rot)=       0.01233917 Eh      7.74 kcal/mol|
 --------------------------------------------------------


-------------------
GIBBS FREE ENERGY
-------------------

The Gibbs free energy is G = H - T*S

Total enthalpy                    ...   -990.13336918 Eh 
Total entropy correction          ...     -0.05008947 Eh    -31.43 kcal/mol
-----------------------------------------------------------------------
Final Gibbs free energy         ...   -990.18345865 Eh

For completeness - the Gibbs free energy minus the electronic energy
G-E(el)                           ...      0.08293613 Eh     52.04 kcal/mol



Timings for individual modules:

Sum of individual times         ...    58291.057 sec (= 971.518 min)
GTO integral calculation        ...       57.249 sec (=   0.954 min)   0.1 %
SCF iterations                  ...     1089.724 sec (=  18.162 min)   1.9 %
SCF Gradient evaluation         ...      250.119 sec (=   4.169 min)   0.4 %
Geometry relaxation             ...        1.976 sec (=   0.033 min)   0.0 %
Numerical frequency calculation ...     2400.574 sec (=  40.010 min)   4.1 %
NEB Iterations                  ...    54491.415 sec (= 908.190 min)  93.5 %
                             ****ORCA TERMINATED NORMALLY****
TOTAL RUN TIME: 0 days 16 hours 10 minutes 52 seconds 777 msec
