
                                 *****************
                                 * O   R   C   A *
                                 *****************

                                            #,                                       
                                            ###                                      
                                            ####                                     
                                            #####                                    
                                            ######                                   
                                           ########,                                 
                                     ,,################,,,,,                         
                               ,,#################################,,                 
                          ,,##########################################,,             
                       ,#########################################, ''#####,          
                    ,#############################################,,   '####,        
                  ,##################################################,,,,####,       
                ,###########''''           ''''###############################       
              ,#####''   ,,,,##########,,,,          '''####'''          '####       
            ,##' ,,,,###########################,,,                        '##       
           ' ,,###''''                  '''############,,,                           
         ,,##''                                '''############,,,,        ,,,,,,###''
      ,#''                                            '''#######################'''  
     '                                                          ''''####''''         
             ,#######,   #######,   ,#######,      ##                                
            ,#'     '#,  ##    ##  ,#'     '#,    #''#        ######   ,####,        
            ##       ##  ##   ,#'  ##            #'  '#       #        #'  '#        
            ##       ##  #######   ##           ,######,      #####,   #    #        
            '#,     ,#'  ##    ##  '#,     ,#' ,#      #,         ##   #,  ,#        
             '#######'   ##     ##  '#######'  #'      '#     #####' # '####'        



                  #######################################################
                  #                        -***-                        #
                  #          Department of theory and spectroscopy      #
                  #    Directorship and core code : Frank Neese         #
                  #        Max Planck Institute fuer Kohlenforschung    #
                  #                Kaiser Wilhelm Platz 1               #
                  #                 D-45470 Muelheim/Ruhr               #
                  #                      Germany                        #
                  #                                                     #
                  #                  All rights reserved                #
                  #                        -***-                        #
                  #######################################################


                         Program Version 5.0.4 -  RELEASE  -


 With contributions from (in alphabetic order):
   Daniel Aravena         : Magnetic Suceptibility
   Michael Atanasov       : Ab Initio Ligand Field Theory (pilot matlab implementation)
   Alexander A. Auer      : GIAO ZORA, VPT2 properties, NMR spectrum
   Ute Becker             : Parallelization
   Giovanni Bistoni       : ED, misc. LED, open-shell LED, HFLD
   Martin Brehm           : Molecular dynamics
   Dmytro Bykov           : SCF Hessian
   Vijay G. Chilkuri      : MRCI spin determinant printing, contributions to CSF-ICE
   Dipayan Datta          : RHF DLPNO-CCSD density
   Achintya Kumar Dutta   : EOM-CC, STEOM-CC
   Dmitry Ganyushin       : Spin-Orbit,Spin-Spin,Magnetic field MRCI
   Miquel Garcia          : C-PCM and meta-GGA Hessian, CC/C-PCM, Gaussian charge scheme
   Yang Guo               : DLPNO-NEVPT2, F12-NEVPT2, CIM, IAO-localization
   Andreas Hansen         : Spin unrestricted coupled pair/coupled cluster methods
   Benjamin Helmich-Paris : MC-RPA, TRAH-SCF, COSX integrals
   Lee Huntington         : MR-EOM, pCC
   Robert Izsak           : Overlap fitted RIJCOSX, COSX-SCS-MP3, EOM
   Marcus Kettner         : VPT2
   Christian Kollmar      : KDIIS, OOCD, Brueckner-CCSD(T), CCSD density, CASPT2, CASPT2-K
   Simone Kossmann        : Meta GGA functionals, TD-DFT gradient, OOMP2, MP2 Hessian
   Martin Krupicka        : Initial AUTO-CI
   Lucas Lang             : DCDCAS
   Marvin Lechner         : AUTO-CI (C++ implementation), FIC-MRCC
   Dagmar Lenk            : GEPOL surface, SMD
   Dimitrios Liakos       : Extrapolation schemes; Compound Job, initial MDCI parallelization
   Dimitrios Manganas     : Further ROCIS development; embedding schemes
   Dimitrios Pantazis     : SARC Basis sets
   Anastasios Papadopoulos: AUTO-CI, single reference methods and gradients
   Taras Petrenko         : DFT Hessian,TD-DFT gradient, ASA, ECA, R-Raman, ABS, FL, XAS/XES, NRVS
   Peter Pinski           : DLPNO-MP2, DLPNO-MP2 Gradient
   Christoph Reimann      : Effective Core Potentials
   Marius Retegan         : Local ZFS, SOC
   Christoph Riplinger    : Optimizer, TS searches, QM/MM, DLPNO-CCSD(T), (RO)-DLPNO pert. Triples
   Tobias Risthaus        : Range-separated hybrids, TD-DFT gradient, RPA, STAB
   Michael Roemelt        : Original ROCIS implementation
   Masaaki Saitow         : Open-shell DLPNO-CCSD energy and density
   Barbara Sandhoefer     : DKH picture change effects
   Avijit Sen             : IP-ROCIS
   Kantharuban Sivalingam : CASSCF convergence, NEVPT2, FIC-MRCI
   Bernardo de Souza      : ESD, SOC TD-DFT
   Georgi Stoychev        : AutoAux, RI-MP2 NMR, DLPNO-MP2 response
   Willem Van den Heuvel  : Paramagnetic NMR
   Boris Wezisla          : Elementary symmetry handling
   Frank Wennmohs         : Technical directorship


 We gratefully acknowledge several colleagues who have allowed us to
 interface, adapt or use parts of their codes:
   Stefan Grimme, W. Hujo, H. Kruse, P. Pracht,  : VdW corrections, initial TS optimization,
                  C. Bannwarth, S. Ehlert          DFT functionals, gCP, sTDA/sTD-DF
   Ed Valeev, F. Pavosevic, A. Kumar             : LibInt (2-el integral package), F12 methods
   Garnet Chan, S. Sharma, J. Yang, R. Olivares  : DMRG
   Ulf Ekstrom                                   : XCFun DFT Library
   Mihaly Kallay                                 : mrcc  (arbitrary order and MRCC methods)
   Jiri Pittner, Ondrej Demel                    : Mk-CCSD
   Frank Weinhold                                : gennbo (NPA and NBO analysis)
   Christopher J. Cramer and Donald G. Truhlar   : smd solvation model
   Lars Goerigk                                  : TD-DFT with DH, B97 family of functionals
   V. Asgeirsson, H. Jonsson                     : NEB implementation
   FAccTs GmbH                                   : IRC, NEB, NEB-TS, DLPNO-Multilevel, CI-OPT
                                                   MM, QMMM, 2- and 3-layer-ONIOM, Crystal-QMMM,
                                                   LR-CPCM, SF, NACMEs, symmetry and pop. for TD-DFT,
                                                   nearIR, NL-DFT gradient (VV10), updates on ESD,
                                                   ML-optimized integration grids
   S Lehtola, MJT Oliveira, MAL Marques          : LibXC Library
   Liviu Ungur et al                             : ANISO software


 Your calculation uses the libint2 library for the computation of 2-el integrals
 For citations please refer to: http://libint.valeyev.net

 Your ORCA version has been built with support for libXC version: 5.1.0
 For citations please refer to: https://tddft.org/programs/libxc/

 This ORCA versions uses:
   CBLAS   interface :  Fast vector & matrix operations
   LAPACKE interface :  Fast linear algebra routines
   SCALAPACK package :  Parallel linear algebra routines
   Shared memory     :  Shared parallel matrices
   BLAS/LAPACK       :  OpenBLAS 0.3.15  USE64BITINT DYNAMIC_ARCH NO_AFFINITY SkylakeX SINGLE_THREADED
        Core in use  :  SkylakeX
   Copyright (c) 2011-2014, The OpenBLAS Project




***************************************
The coordinates will be read from file: reactants.xyz
***************************************


Your calculation utilizes the SMD solvation module
Please cite in your paper:
A.V. Marenich, C.J. Cramer, D.G. Truhlar J. Phys. Chem. B, 113, (2009), 6378 

XCFun DFT library Copyright 2009-2010 Ulf Ekstrom and contributors.
See http://admol.org/xcfun for more information.
This is free software; see the source code for copying conditions.
There is ABSOLUTELY NO WARRANTY; not even for MERCHANTABILITY or FITNESS FOR A PARTICULAR PURPOSE.
For details see the documentation.
Scientific users of this library should cite U. Ekstrom, L. Visscher, R. Bast, A. J. Thorvaldsen and K. Ruud;
J.Chem.Theor.Comp. 2010, DOI: 10.1021/ct100117s
XCFun Version 0.99 

================================================================================

----- Orbital basis set information -----
Your calculation utilizes the basis: 6-311++G**
   H, Li - Ne  : R. Krishnan, J. S. Binkley, R. Seeger and J. A. Pople, J. Chem. Phys. 72, 650 (1980).
   Na - Ar     : A. D. McLean and G. S. Chandler J. Chem. Phys. 72, 5639, (1980).
   K  - Ca     : J.-P. Blaudeau, M. P. McGrath, L. A. Curtiss and L. Radom, J. Chem. Phys. 107, 5016 (1997).
   Ga - Kr     : L. A. Curtiss, M. P. McGrath, J.-P. Blandeau, N. E. Davis, R. C. Binning and L. Radom, J. Chem. Phys. 103, 6104 (1995).
   Pol./Diff.
   H, Li - Cl  : T. Clark, J. Chandrasekhar and P. v. R. Schleyer, J. Comp. Chem. 4, 294 (1983).
   H - Ne      : M. J. Frisch, J. A. Pople and J. S. Binkley, J. Chem. Phys. 80, 3265 (1984).

----- AuxJ basis set information -----
Your calculation utilizes the auxiliary basis: def2/J
   F. Weigend, Phys. Chem. Chem. Phys. 8, 1057 (2006).

================================================================================
                                        WARNINGS
                       Please study these warnings very carefully!
================================================================================


WARNING: Geometry Optimization
  ===> : Switching off AutoStart
         For restart on a previous wavefunction, please use MOREAD

INFO   : the flag for use of the SHARK integral package has been found!

================================================================================
                                       INPUT FILE
================================================================================
NAME = structure_opt.inp
|  1> !wb97x 6-311++G** OPT CPCM(WATER)
|  2> %maxcore  3500
|  3> %pal
|  4> nprocs 24
|  5> end
|  6> %cpcm
|  7> smd true
|  8> SMDsolvent "water"
|  9> end
| 10> %geom
| 11> ConstrainFragments {1} end
| 12> ConstrainFragments {4} end
| 13> ConnectFragments
| 14> { 1 2 C 5 7 }
| 15> { 1 2 C 0 9 }
| 16> { 2 3 C 13 5 }
| 17> { 3 4 C 13 17 }
| 18> end
| 19> end
| 20> * XYZfile -1 1 reactants.xyz
| 21> %geom
| 22> Fragments
| 23> 1 {0:5} end
| 24> 2 {6:12} end
| 25> 3 {13:16} end
| 26> 4 {17} end
| 27> end
| 28> end
| 29> 
| 30>                          ****END OF INPUT****
================================================================================

                       *****************************
                       * Geometry Optimization Run *
                       *****************************

Geometry optimization settings:
Update method            Update   .... BFGS
Choice of coordinates    CoordSys .... Z-matrix Internals
Initial Hessian          InHess   .... Almoef's Model

Convergence Tolerances:
Energy Change            TolE     ....  5.0000e-06 Eh
Max. Gradient            TolMAXG  ....  3.0000e-04 Eh/bohr
RMS Gradient             TolRMSG  ....  1.0000e-04 Eh/bohr
Max. Displacement        TolMAXD  ....  4.0000e-03 bohr
RMS Displacement         TolRMSD  ....  2.0000e-03 bohr
Strict Convergence                ....  False
------------------------------------------------------------------------------
                        ORCA OPTIMIZATION COORDINATE SETUP
------------------------------------------------------------------------------

The optimization will be done in new redundant internal coordinates
Making redundant internal coordinates   ...  (new redundants) done
Evaluating the initial hessian          ...  (Almloef) done
Evaluating the coordinates              ...  done
Calculating the B-matrix                .... done
Calculating the G-matrix                .... done
Diagonalizing the G-matrix              .... done
Imposing constraints:
 Iter   0:  RMS(Cart)=    0.0000000000 RMS(Int)=    0.0000000000
CONVERGED
Small eigenvalue found = 1.042e-02
The first mode is                       ....   72
The number of degrees of freedom        ....   48
Storing new coordinates                 .... done

    -----------------------------------------------------------------
                    Redundant Internal Coordinates


    -----------------------------------------------------------------
         Definition                    Initial Value    Approx d2E/dq
    -----------------------------------------------------------------
      1. B(N   1,C   0)                  1.3611         0.622347   
      2. B(C   2,N   1)                  1.3582         0.628875   
      3. B(C   3,C   2)                  1.3949         0.613658   
      4. B(C   4,C   3)                  1.3934         0.616971   
      5. B(C   5,C   0)                  1.4122         0.575774   
      6. B(C   5,C   4)                  1.4061         0.588917   
      7. B(O   7,C   5)                  2.3435         0.016853 C 
      8. B(O   7,N   6)                  1.2480         0.844503   
      9. B(O   8,N   6)                  1.3769         0.525866   
     10. B(F   9,C   0)                  1.3500         0.602260 C 
     11. B(F   9,N   6)                  2.8678         0.002044   
     12. B(F   9,O   7)                  2.5821         0.005837   
     13. B(H  11,H  10)                  2.4818         0.000415   
     14. B(H  12,O   8)                  2.5152         0.001717   
     15. B(H  12,H  11)                  2.4663         0.000439   
     16. B(H  12,N   6)                  2.7029         0.000861   
     17. B(C  13,O   7)                  7.0346         0.000000 C 
     18. B(H  14,C  13)                  1.0945         0.354163   
     19. B(H  15,C  13)                  1.0931         0.356023   
     20. B(H  16,C  13)                  1.0933         0.355803   
     21. B(S  17,C  13)                  1.8028         0.369754 C 
     22. A(N   1,C   0,C   5)          120.1571         0.425830   
     23. A(N   1,C   0,F   9)          118.6704         0.424592 C 
     24. A(C   5,C   0,F   9)          121.1725         0.421471 C 
     25. A(C   0,N   1,C   2)          121.9524         0.429796   
     26. A(N   1,C   2,C   3)          120.0262         0.431531   
     27. A(C   2,C   3,C   4)          119.3498         0.432882   
     28. A(C   3,C   4,C   5)          120.4718         0.429694   
     29. A(C   0,C   5,O   7)           94.5313         0.237820 C 
     30. A(C   0,C   5,C   4)          118.0425         0.424407   
     31. A(C   4,C   5,O   7)          147.4261         0.238582 C 
     32. A(O   7,N   6,F   9)           64.2090         0.186619   
     33. A(O   8,N   6,H  12)           67.2752         0.152046   
     34. A(O   7,N   6,H  12)          174.2234         0.159181   
     35. A(F   9,N   6,H  12)          110.0144         0.106848   
     36. A(O   7,N   6,O   8)          118.5014         0.433822   
     37. A(N   6,O   7,F   9)           89.9947         0.212791   
     38. A(C   5,O   7,C  13)          142.7959         0.090343   
     39. A(C   5,O   7,N   6)           31.7456         0.248611 C 
     40. A(C   5,O   7,F   9)           58.2491         0.140475 C 
     41. A(N   6,O   7,C  13)          121.7210         0.092229 C 
     42. A(F   9,O   7,C  13)          131.5877         0.090041 C 
     43. A(N   6,O   8,H  12)           82.3972         0.162696   
     44. A(N   6,F   9,O   7)           25.7962         0.120482   
     45. A(C   0,F   9,O   7)           86.0471         0.203997 C 
     46. A(C   0,F   9,N   6)           60.2509         0.179684 C 
     47. A(H  10,H  11,H  12)          119.7063         0.095112   
     48. A(N   6,H  12,O   8)           30.3275         0.103999   
     49. A(N   6,H  12,H  11)          126.7169         0.097913   
     50. A(O   8,H  12,H  11)          157.0445         0.099419   
     51. A(H  14,C  13,H  16)          108.9541         0.289536   
     52. A(H  15,C  13,H  16)          109.0163         0.289774   
     53. A(O   7,C  13,S  17)           14.4680         0.091915   
     54. A(H  16,C  13,S  17)          109.8868         0.339572 C 
     55. A(O   7,C  13,H  15)          113.4529         0.091335 C 
     56. A(O   7,C  13,H  16)           95.7899         0.091335 C 
     57. A(H  14,C  13,S  17)          109.9635         0.339310 C 
     58. A(H  15,C  13,S  17)          109.9916         0.339607 C 
     59. A(O   7,C  13,H  14)          119.4640         0.091333 C 
     60. A(H  14,C  13,H  15)          109.0025         0.289564   
     61. D(C   2,N   1,C   0,C   5)     -0.1041         0.028432   
     62. D(C   2,N   1,C   0,F   9)    179.9112         0.028432 C 
     63. D(C   3,C   2,N   1,C   0)      0.1066         0.025783   
     64. D(C   4,C   3,C   2,N   1)     -0.0956         0.020965   
     65. D(C   5,C   4,C   3,C   2)      0.0854         0.021202   
     66. D(O   7,C   5,C   0,N   1)    179.9933         0.022761 C 
     67. D(O   7,C   5,C   4,C   3)   -179.9036         0.021656 C 
     68. D(O   7,C   5,C   0,F   9)     -0.0223         0.022761 C 
     69. D(C   4,C   5,C   0,N   1)      0.0896         0.022761   
     70. D(C   4,C   5,C   0,F   9)   -179.9260         0.022761 C 
     71. D(C   0,C   5,C   4,C   3)     -0.0818         0.021656   
     72. D(F   9,O   7,C   5,C   0)      0.0117         0.001519 C 
     73. D(F   9,O   7,C   5,C   4)    179.8539         0.001519 C 
     74. D(C  13,O   7,N   6,F   9)   -141.2858         0.085936 C 
     75. D(C  13,O   7,C   5,C   0)   -118.3987         0.001519   
     76. D(C  13,O   7,C   5,C   4)     61.4435         0.001519   
     77. D(N   6,O   7,C   5,C   4)     -0.1099         0.001519 C 
     78. D(C  13,O   7,N   6,O   8)     38.7073         0.085936 C 
     79. D(F   9,O   7,N   6,H  12)      0.1568         0.085936   
     80. D(C   5,O   7,N   6,O   8)   -179.9761         0.085936 C 
     81. D(C   5,O   7,N   6,H  12)      0.1876         0.085936 C 
     82. D(F   9,O   7,N   6,O   8)    179.9932         0.085936   
     83. D(C   5,O   7,N   6,F   9)      0.0308         0.085936 C 
     84. D(N   6,O   7,C   5,C   0)   -179.9521         0.001519 C 
     85. D(C  13,O   7,N   6,H  12)   -141.1290         0.085936 C 
     86. D(H  12,O   8,N   6,O   7)   -179.9821         0.025649   
     87. D(O   7,F   9,N   6,H  12)   -179.9832         0.001500   
     88. D(N   6,F   9,C   0,C   5)      0.0236         0.032536 C 
     89. D(O   7,F   9,C   0,N   1)   -179.9952         0.032536 C 
     90. D(N   6,F   9,C   0,N   1)   -179.9918         0.032536 C 
     91. D(O   7,F   9,C   0,C   5)      0.0202         0.032536 C 
     92. D(C   0,F   9,N   6,O   7)   -179.9922         0.001500 C 
     93. D(O   7,F   9,O   8,H  12)   -179.9897         0.001500   
     94. D(N   6,F   9,O   7,C   5)     -0.0190         0.001503 C 
     95. D(N   6,F   9,O   7,C  13)    134.6596         0.001503 C 
     96. D(C   0,F   9,O   7,N   6)      0.0068         0.001503 C 
     97. D(C   0,F   9,O   7,C   5)     -0.0123         0.001503 C 
     98. D(C   0,F   9,N   6,H  12)      0.0246         0.001500 C 
     99. D(C   0,F   9,O   7,C  13)    134.6664         0.001503   
    100. D(C   0,F   9,O   8,H  12)      0.0232         0.001500 C 
    101. D(O   8,H  12,N   6,O   7)    179.8441         0.001501   
    102. D(N   6,H  12,H  11,H  10)      0.0466         0.001502   
    103. D(H  11,H  12,N   6,O   7)     -0.1748         0.001501   
    104. D(H  11,H  12,N   6,O   8)    179.9811         0.001501   
    105. D(H  11,H  12,N   6,F   9)     -0.0245         0.001501   
    106. D(O   8,H  12,N   6,F   9)    179.9943         0.001501   
    107. D(H  11,H  12,O   8,N   6)     -0.0388         0.001502   
    108. D(O   8,H  12,H  11,H  10)      0.0710         0.001502   
    109. D(H  14,C  13,O   7,N   6)   -176.3101         0.001500 C 
    110. D(S  17,C  13,O   7,F   9)      8.7446         0.001500   
    111. D(H  14,C  13,O   7,C   5)    150.7427         0.001500   
    112. D(H  15,C  13,O   7,N   6)     52.9409         0.001500 C 
    113. D(H  15,C  13,O   7,F   9)    -70.3171         0.001500 C 
    114. D(H  15,C  13,O   7,C   5)     19.9936         0.001500   
    115. D(H  16,C  13,O   7,N   6)    -60.6992         0.001500 C 
    116. D(H  16,C  13,O   7,F   9)    176.0428         0.001500 C 
    117. D(H  16,C  13,O   7,C   5)    -93.6464         0.001500   
    118. D(H  14,C  13,O   7,F   9)     60.4319         0.001500 C 
    119. D(S  17,C  13,O   7,N   6)    132.0026         0.001500   
    120. D(S  17,C  13,O   7,C   5)     99.0554         0.001500   
    -----------------------------------------------------------------

Number of atoms                         .... 18
Number of degrees of freedom            .... 120

         *************************************************************
         *                GEOMETRY OPTIMIZATION CYCLE   1            *
         *************************************************************
---------------------------------
CARTESIAN COORDINATES (ANGSTROEM)
---------------------------------
  C      0.000000    0.000000    1.820000
  N      1.178000   -0.196000    2.473000
  C      1.255000   -0.207000    3.829000
  C      0.105000   -0.016000    4.595000
  C     -1.116000    0.187000    3.955000
  C     -1.192000    0.198000    2.551000
  N     -2.456000    0.409000    1.893000
  O     -2.541000    0.423000    0.648000
  O     -3.602000    0.600000    2.632000
  F      0.000000    0.000000    0.470000
  H      2.209000   -0.366000    4.313000
  H      0.163000   -0.026000    5.676000
  H     -2.005000    0.335000    4.557000
  C     -6.773000    4.921000   -2.720000
  H     -6.865000    4.861000   -3.809000
  H     -6.616000    5.964000   -2.433000
  H     -7.700000    4.562000   -2.265000
  S     -5.386000    3.913000   -2.163000

----------------------------
CARTESIAN COORDINATES (A.U.)
----------------------------
  NO LB      ZA    FRAG     MASS         X           Y           Z
   0 C     6.0000    1    12.011    0.000000    0.000000    3.439302
   1 N     7.0000    1    14.007    2.226097   -0.370386    4.673293
   2 C     6.0000    1    12.011    2.371606   -0.391173    7.235761
   3 C     6.0000    1    12.011    0.198421   -0.030236    8.683292
   4 C     6.0000    1    12.011   -2.108934    0.353379    7.473867
   5 C     6.0000    1    12.011   -2.252554    0.374166    4.820691
   6 N     7.0000    2    14.007   -4.641167    0.772898    3.577252
   7 O     8.0000    2    15.999   -4.801794    0.799354    1.224543
   8 O     8.0000    2    15.999   -6.806794    1.133836    4.973759
   9 F     9.0000    2    18.998    0.000000    0.000000    0.888171
  10 H     1.0000    2     1.008    4.174405   -0.691640    8.150389
  11 H     1.0000    2     1.008    0.308025   -0.049133   10.726086
  12 H     1.0000    2     1.008   -3.788901    0.633058    8.611482
  13 C     6.0000    3    12.011  -12.799115    9.299342   -5.140055
  14 H     1.0000    3     1.008  -12.972970    9.185959   -7.197967
  15 H     1.0000    3     1.008  -12.502428   11.270327   -4.597704
  16 H     1.0000    3     1.008  -14.550891    8.620931   -4.280230
  17 S    16.0000    4    32.060  -10.178065    7.394498   -4.087478

----------------------------------------------
CARTESIAN COORDINATES OF FRAGMENTS (ANGSTROEM)
----------------------------------------------

 FRAGMENT 1 
  C     0.000000    0.000000    1.820000
  N     1.178000   -0.196000    2.473000
  C     1.255000   -0.207000    3.829000
  C     0.105000   -0.016000    4.595000
  C    -1.116000    0.187000    3.955000
  C    -1.192000    0.198000    2.551000

 FRAGMENT 2 
  N    -2.456000    0.409000    1.893000
  O    -2.541000    0.423000    0.648000
  O    -3.602000    0.600000    2.632000
  F     0.000000    0.000000    0.470000
  H     2.209000   -0.366000    4.313000
  H     0.163000   -0.026000    5.676000
  H    -2.005000    0.335000    4.557000

 FRAGMENT 3 
  C    -6.773000    4.921000   -2.720000
  H    -6.865000    4.861000   -3.809000
  H    -6.616000    5.964000   -2.433000
  H    -7.700000    4.562000   -2.265000

 FRAGMENT 4 
  S    -5.386000    3.913000   -2.163000

--------------------------------
INTERNAL COORDINATES (ANGSTROEM)
--------------------------------
 C      0   0   0     0.000000000000     0.00000000     0.00000000
 N      1   0   0     1.361069065110     0.00000000     0.00000000
 C      2   1   0     1.358228993948   121.95243626     0.00000000
 C      3   2   1     1.394896770374   120.02620694     0.10655554
 C      4   3   2     1.393431017309   119.34983770   359.90435571
 C      5   4   3     1.406098502951   120.47178172     0.08537773
 N      6   5   4     1.440548853736   120.30882193   180.03842131
 O      7   6   5     1.247976762604   121.13704526   179.93147861
 O      7   6   5     1.376923382037   120.36156660   359.90709941
 F      1   2   3     1.350000000000   118.67037638   179.91115691
 H      3   2   1     1.081504969938   119.86701156   179.98746005
 H      4   3   2     1.082601034546   120.19197482   179.89186186
 H      5   4   3     1.083803026384   118.91636700   180.02085854
 C      8   7   6     7.034575466935   121.72104633   218.68339060
 H     14   8   7     1.094525011135   119.46402442   183.68989498
 H     14   8   7     1.093099720977   113.45285079    52.94085209
 H     14   8   7     1.093268036668    95.78989611   299.30079774
 S     14   8   7     1.802798380297    14.46799364   132.00262229

---------------------------
INTERNAL COORDINATES (A.U.)
---------------------------
 C      0   0   0     0.000000000000     0.00000000     0.00000000
 N      1   0   0     2.572047782411     0.00000000     0.00000000
 C      2   1   0     2.566680825712   121.95243626     0.00000000
 C      3   2   1     2.635972881098   120.02620694     0.10655554
 C      4   3   2     2.633203009226   119.34983770   359.90435571
 C      5   4   3     2.657141087893   120.47178172     0.08537773
 N      6   5   4     2.722242816095   120.30882193   180.03842131
 O      7   6   5     2.358334302820   121.13704526   179.93147861
 O      7   6   5     2.602008099442   120.36156660   359.90709941
 F      1   2   3     2.551130280794   118.67037638   179.91115691
 H      3   2   1     2.043748205657   119.86701156   179.98746005
 H      4   3   2     2.045819467592   120.19197482   179.89186186
 H      5   4   3     2.048090902982   118.91636700   180.02085854
 C      8   7   6    13.293421100908   121.72104633   218.68339060
 H     14   8   7     2.068352517772   119.46402442   183.68989498
 H     14   8   7     2.065659109712   113.45285079    52.94085209
 H     14   8   7     2.065977180272    95.78989611   299.30079774
 S     14   8   7     3.406795213437    14.46799364   132.00262229

---------------------
BASIS SET INFORMATION
---------------------
There are 6 groups of distinct atoms

 Group   1 Type C   : 12s6p1d contracted to 5s4p1d pattern {63111/3111/1}
 Group   2 Type N   : 12s6p1d contracted to 5s4p1d pattern {63111/3111/1}
 Group   3 Type O   : 12s6p1d contracted to 5s4p1d pattern {63111/3111/1}
 Group   4 Type F   : 12s6p1d contracted to 5s4p1d pattern {63111/3111/1}
 Group   5 Type H   : 6s1p contracted to 4s1p pattern {3111/1}
 Group   6 Type S   : 14s10p1d contracted to 7s6p1d pattern {6311111/421111/1}

Atom   0C    basis set group =>   1
Atom   1N    basis set group =>   2
Atom   2C    basis set group =>   1
Atom   3C    basis set group =>   1
Atom   4C    basis set group =>   1
Atom   5C    basis set group =>   1
Atom   6N    basis set group =>   2
Atom   7O    basis set group =>   3
Atom   8O    basis set group =>   3
Atom   9F    basis set group =>   4
Atom  10H    basis set group =>   5
Atom  11H    basis set group =>   5
Atom  12H    basis set group =>   5
Atom  13C    basis set group =>   1
Atom  14H    basis set group =>   5
Atom  15H    basis set group =>   5
Atom  16H    basis set group =>   5
Atom  17S    basis set group =>   6
---------------------------------
AUXILIARY/J BASIS SET INFORMATION
---------------------------------
There are 6 groups of distinct atoms

 Group   1 Type C   : 12s5p4d2f1g contracted to 6s4p3d1f1g pattern {711111/2111/211/2/1}
 Group   2 Type N   : 12s5p4d2f1g contracted to 6s4p3d1f1g pattern {711111/2111/211/2/1}
 Group   3 Type O   : 12s5p4d2f1g contracted to 6s4p3d1f1g pattern {711111/2111/211/2/1}
 Group   4 Type F   : 12s5p4d2f1g contracted to 6s4p3d1f1g pattern {711111/2111/211/2/1}
 Group   5 Type H   : 5s2p1d contracted to 3s1p1d pattern {311/2/1}
 Group   6 Type S   : 14s5p5d2f1g contracted to 8s4p3d1f1g pattern {71111111/2111/311/2/1}

Atom   0C    basis set group =>   1
Atom   1N    basis set group =>   2
Atom   2C    basis set group =>   1
Atom   3C    basis set group =>   1
Atom   4C    basis set group =>   1
Atom   5C    basis set group =>   1
Atom   6N    basis set group =>   2
Atom   7O    basis set group =>   3
Atom   8O    basis set group =>   3
Atom   9F    basis set group =>   4
Atom  10H    basis set group =>   5
Atom  11H    basis set group =>   5
Atom  12H    basis set group =>   5
Atom  13C    basis set group =>   1
Atom  14H    basis set group =>   5
Atom  15H    basis set group =>   5
Atom  16H    basis set group =>   5
Atom  17S    basis set group =>   6


           ************************************************************
           *        Program running with 24 parallel MPI-processes    *
           *              working on a common directory               *
           ************************************************************
------------------------------------------------------------------------------
                           ORCA GTO INTEGRAL CALCULATION
                           -- RI-GTO INTEGRALS CHOSEN --
------------------------------------------------------------------------------
------------------------------------------------------------------------------
                   ___                                                        
                  /   \      - P O W E R E D   B Y -                         
                 /     \                                                     
                 |  |  |   _    _      __       _____    __    __             
                 |  |  |  | |  | |    /  \     |  _  \  |  |  /  |          
                  \  \/   | |  | |   /    \    | | | |  |  | /  /          
                 / \  \   | |__| |  /  /\  \   | |_| |  |  |/  /          
                |  |  |   |  __  | /  /__\  \  |    /   |      \           
                |  |  |   | |  | | |   __   |  |    \   |  |\   \          
                \     /   | |  | | |  |  |  |  | |\  \  |  | \   \       
                 \___/    |_|  |_| |__|  |__|  |_| \__\ |__|  \__/        
                                                                              
                      - O R C A' S   B I G   F R I E N D -                    
                                      &                                       
                       - I N T E G R A L  F E E D E R -                       
                                                                              
 v1 FN, 2020, v2 2021                                                         
------------------------------------------------------------------------------


Reading SHARK input file structure_opt.SHARKINP.tmp ... ok
----------------------
SHARK INTEGRAL PACKAGE
----------------------

Number of atoms                             ...     18
Number of basis functions                   ...    314
Number of shells                            ...    154
Maximum angular momentum                    ...      2
Integral batch strategy                     ... SHARK/LIBINT Hybrid
RI-J (if used) integral strategy            ... SPLIT-RIJ (Revised 2003 algorithm where possible)
Printlevel                                  ...      1
Contraction scheme used                     ... SEGMENTED contraction
Coulomb Range Separation                    ... NOT USED
Exchange Range Separation                   ... Long Range
   Mu parameter                             ...  0.300000
   Scaling (regular/separated)              ...  0.157706  0.842294
Finite Nucleus Model                        ... NOT USED
Auxiliary Coulomb fitting basis             ... AVAILABLE
   # of basis functions in Aux-J            ...    656
   # of shells in Aux-J                     ...    212
   Maximum angular momentum in Aux-J        ...      4
Auxiliary J/K fitting basis                 ... NOT available
Auxiliary Correlation fitting basis         ... NOT available
Auxiliary 'external' fitting basis          ... NOT available
Integral threshold                          ...     2.500000e-11
Primitive cut-off                           ...     2.500000e-12
Primitive pair pre-selection threshold      ...     2.500000e-12

Calculating pre-screening integrals         ... done (  0.0 sec) Dimension = 154
Organizing shell pair data                  ... done (  0.1 sec)
Shell pair information
Total number of shell pairs                 ...     11935
Shell pairs after pre-screening             ...      8722
Total number of primitive shell pairs       ...     38500
Primitive shell pairs kept                  ...     20088
          la=0 lb=0:   2658 shell pairs
          la=1 lb=0:   3590 shell pairs
          la=1 lb=1:   1242 shell pairs
          la=2 lb=0:    697 shell pairs
          la=2 lb=1:    483 shell pairs
          la=2 lb=2:     52 shell pairs

Calculating one electron integrals          ... done (  0.0 sec)
Calculating RI/J V-Matrix + Cholesky decomp.... done (  0.2 sec)
Calculating Nuclear repulsion               ... done (  0.0 sec) ENN=    671.416943625960 Eh

SHARK setup successfully completed in   0.6 seconds

Maximum memory used throughout the entire GTOINT-calculation: 17.5 MB


           ************************************************************
           *        Program running with 24 parallel MPI-processes    *
           *              working on a common directory               *
           ************************************************************
-------------------------------------------------------------------------------
                                 ORCA SCF
-------------------------------------------------------------------------------

------------
SCF SETTINGS
------------
Hamiltonian:
 Density Functional     Method          .... DFT(GTOs)
 Exchange Functional    Exchange        .... WB97X
 Correlation Functional Correlation     .... WB97X
 Gradients option       PostSCFGGA      .... off
 Hybrid DFT is turned on
   Fraction HF Exchange ScalHFX         ....  0.157706
   Scaling of DF-GGA-X  ScalDFX         ....  0.000000
   Scaling of DF-GGA-C  ScalDFC         ....  1.000000
   Scaling of DF-LDA-C  ScalLDAC        ....  1.000000
   Perturbative correction              ....  0.000000
   Density functional embedding theory  .... OFF
 Long-range corrected/Screened/Range-Separated Hybrid DFT is turned on
   Amount of maximum screened exact exchange              ....  0.842294
   Range separation parameter mu (erf(mu*r12)/r12)        ....  0.300000
 RI-approximation to the Coulomb term is turned on
   Number of AuxJ basis functions       .... 656
   RIJ-COSX (HFX calculated with COS-X)).... on


General Settings:
 Integral files         IntName         .... structure_opt
 Hartree-Fock type      HFTyp           .... RHF
 Total Charge           Charge          ....   -1
 Multiplicity           Mult            ....    1
 Number of Electrons    NEL             ....   98
 Basis Dimension        Dim             ....  314
 Nuclear Repulsion      ENuc            ....    671.4169436260 Eh

Convergence Acceleration:
 DIIS                   CNVDIIS         .... on
   Start iteration      DIISMaxIt       ....    12
   Startup error        DIISStart       ....  0.200000
   # of expansion vecs  DIISMaxEq       ....     5
   Bias factor          DIISBfac        ....   1.050
   Max. coefficient     DIISMaxC        ....  10.000
 Trust-Rad. Augm. Hess. CNVTRAH         .... auto
   Auto Start mean grad. ratio tolernc. ....  1.125000
   Auto Start start iteration           ....    20
   Auto Start num. interpolation iter.  ....    10
   Max. Number of Micro iterations      ....    16
   Max. Number of Macro iterations      .... Maxiter - #DIIS iter
   Number of Davidson start vectors     ....     2
   Converg. threshold I  (grad. norm)   ....   1.000e-05
   Converg. threshold II (energy diff.) ....   1.000e-08
   Grad. Scal. Fac. for Micro threshold ....   0.100
   Minimum threshold for Micro iter.    ....   0.010
   NR start threshold (gradient norm)   ....   0.001
   Initial trust radius                 ....   0.400
   Minimum AH scaling param. (alpha)    ....   1.000
   Maximum AH scaling param. (alpha)    .... 1000.000
   Orbital update algorithm             .... Taylor
   White noise on init. David. guess    .... on
   Maximum white noise                  ....   0.010
   Quad. conv. algorithm                .... NR
 SOSCF                  CNVSOSCF        .... on
   Start iteration      SOSCFMaxIt      ....   150
   Startup grad/error   SOSCFStart      ....  0.003300
 Level Shifting         CNVShift        .... on
   Level shift para.    LevelShift      ....    0.2500
   Turn off err/grad.   ShiftErr        ....    0.0010
 Zerner damping         CNVZerner       .... off
 Static damping         CNVDamp         .... on
   Fraction old density DampFac         ....    0.7000
   Max. Damping (<1)    DampMax         ....    0.9800
   Min. Damping (>=0)   DampMin         ....    0.0000
   Turn off err/grad.   DampErr         ....    0.1000
 Fernandez-Rico         CNVRico         .... off

SCF Procedure:
 Maximum # iterations   MaxIter         ....   125
 SCF integral mode      SCFMode         .... Direct
   Integral package                     .... SHARK and LIBINT hybrid scheme
 Reset frequency        DirectResetFreq ....    20
 Integral Threshold     Thresh          ....  2.500e-11 Eh
 Primitive CutOff       TCut            ....  2.500e-12 Eh

Convergence Tolerance:
 Convergence Check Mode ConvCheckMode   .... Total+1el-Energy
 Convergence forced     ConvForced      .... 0
 Energy Change          TolE            ....  1.000e-08 Eh
 1-El. energy change                    ....  1.000e-05 Eh
 Orbital Gradient       TolG            ....  1.000e-05
 Orbital Rotation angle TolX            ....  1.000e-05
 DIIS Error             TolErr          ....  5.000e-07


Diagonalization of the overlap matrix:
Smallest eigenvalue                        ... 4.324e-06
Time for diagonalization                   ...    0.042 sec
Threshold for overlap eigenvalues          ... 1.000e-08
Number of eigenvalues below threshold      ... 0
Time for construction of square roots      ...    0.017 sec
Total time needed                          ...    0.061 sec

Time for model grid setup =    0.245 sec

------------------------------
INITIAL GUESS: MODEL POTENTIAL
------------------------------
Loading Hartree-Fock densities                     ... done
Calculating cut-offs                               ... done
Initializing the effective Hamiltonian             ... done
Setting up the integral package (SHARK)            ... done
Starting the Coulomb interaction                   ... done (   0.1 sec)
Reading the grid                                   ... done
Mapping shells                                     ... done
Starting the XC term evaluation                    ... done (   0.0 sec)
  promolecular density results
     # of electrons  =     96.996200069
     EX              =    -96.552419718
     EC              =     -3.327211536
     EX+EC           =    -99.879631253
Transforming the Hamiltonian                       ... done (   0.0 sec)
Diagonalizing the Hamiltonian                      ... done (   0.0 sec)
Back transforming the eigenvectors                 ... done (   0.0 sec)
Now organizing SCF variables                       ... done
                      ------------------
                      INITIAL GUESS DONE (   0.5 sec)
                      ------------------
-------------------
DFT GRID GENERATION
-------------------

General Integration Accuracy     IntAcc      ... 4.388
Radial Grid Type                 RadialGrid  ... OptM3 with GC (2021)
Angular Grid (max. ang.)         AngularGrid ... 4 (Lebedev-302)
Angular grid pruning method      GridPruning ... 4 (adaptive)
Weight generation scheme         WeightScheme... Becke
Basis function cutoff            BFCut       ... 1.0000e-11
Integration weight cutoff        WCut        ... 1.0000e-14
Angular grids for H and He will be reduced by one unit
Partially contracted basis set               ... off
Rotationally invariant grid construction     ... off

Total number of grid points                  ...    98128
Total number of batches                      ...     1542
Average number of points per batch           ...       63
Average number of grid points per atom       ...     5452
Time for grid setup =    0.604 sec

--------------------
COSX GRID GENERATION
--------------------

GRIDX 1
-------
General Integration Accuracy     IntAcc      ... 3.816
Radial Grid Type                 RadialGrid  ... OptM3 with GC (2021)
Angular Grid (max. ang.)         AngularGrid ... 1 (Lebedev-50)
Angular grid pruning method      GridPruning ... 4 (adaptive)
Weight generation scheme         WeightScheme... Becke
Basis function cutoff            BFCut       ... 1.0000e-11
Integration weight cutoff        WCut        ... 1.0000e-14
Angular grids for H and He will be reduced by one unit
Partially contracted basis set               ... on
Rotationally invariant grid construction     ... off

Total number of grid points                  ...    12256
Total number of batches                      ...      203
Average number of points per batch           ...       60
Average number of grid points per atom       ...      681
UseSFitting                                  ... on

GRIDX 2
-------
General Integration Accuracy     IntAcc      ... 4.020
Radial Grid Type                 RadialGrid  ... OptM3 with GC (2021)
Angular Grid (max. ang.)         AngularGrid ... 2 (Lebedev-110)
Angular grid pruning method      GridPruning ... 4 (adaptive)
Weight generation scheme         WeightScheme... Becke
Basis function cutoff            BFCut       ... 1.0000e-11
Integration weight cutoff        WCut        ... 1.0000e-14
Angular grids for H and He will be reduced by one unit
Partially contracted basis set               ... on
Rotationally invariant grid construction     ... off

Total number of grid points                  ...    31140
Total number of batches                      ...      494
Average number of points per batch           ...       63
Average number of grid points per atom       ...     1730
UseSFitting                                  ... on

GRIDX 3
-------
General Integration Accuracy     IntAcc      ... 4.338
Radial Grid Type                 RadialGrid  ... OptM3 with GC (2021)
Angular Grid (max. ang.)         AngularGrid ... 3 (Lebedev-194)
Angular grid pruning method      GridPruning ... 4 (adaptive)
Weight generation scheme         WeightScheme... Becke
Basis function cutoff            BFCut       ... 1.0000e-11
Integration weight cutoff        WCut        ... 1.0000e-14
Angular grids for H and He will be reduced by one unit
Partially contracted basis set               ... on
Rotationally invariant grid construction     ... off

Total number of grid points                  ...    69326
Total number of batches                      ...     1092
Average number of points per batch           ...       63
Average number of grid points per atom       ...     3851
UseSFitting                                  ... on

Time for X-Grid setup             =    1.271 sec


--------------------
CPCM SOLVATION MODEL
--------------------
CPCM parameters:
  Epsilon                                         ...      78.3550
  Refrac                                          ...       1.3328
  Rsolv                                           ...       1.3000
  Surface type                                    ... GAUSSIAN VDW
  Epsilon function type                           ...         CPCM
Solvent:                                     ... WATER
SMD-CDS solvent descriptors:
  Soln                                       ...    1.3328
  Soln25                                     ...    1.3323
  Sola                                       ...    0.0000
  Solb                                       ...    0.0000
  Solg                                       ...    0.0000
  Solc                                       ...    0.0000
  Solh                                       ...    0.0000
Radii:
 Radius for C  used is    3.4960 Bohr (=   1.8500 Ang.)
 Radius for N  used is    3.5716 Bohr (=   1.8900 Ang.)
 Radius for O  used is    2.8724 Bohr (=   1.5200 Ang.)
 Radius for F  used is    3.2692 Bohr (=   1.7300 Ang.)
 Radius for H  used is    2.2677 Bohr (=   1.2000 Ang.)
 Radius for S  used is    4.7054 Bohr (=   2.4900 Ang.)
Calculating surface                               ...        done! (  0.0s)
GEPOL surface points                              ...         1151
GEPOL Volume                                      ...    1371.9899
GEPOL Surface-area                                ...     850.7603
Calculating surface distance matrix               ...        done! (  0.0s)
Performing Cholesky decomposition & store         ...        done! (  0.1s)
Overall time for CPCM initialization              ...                 0.1s
--------------
SCF ITERATIONS
--------------
ITER       Energy         Delta-E        Max-DP      RMS-DP      [F,P]     Damp
               ***  Starting incremental Fock matrix formation  ***
  0   -989.8659132120   0.000000000000 0.33467938  0.00318409  0.2373418 0.7000
  1   -990.0281107349  -0.162197522890 0.28949223  0.00258840  0.1152050 0.7000
                               ***Turning on DIIS***
  2   -990.1005368770  -0.072426142102 1.72659126  0.00968871  0.0594991 0.0000
  3   -990.2245580274  -0.124021150372 0.78289448  0.00405818  0.0550220 0.0000
  4   -990.2436999378  -0.019141910415 0.25583205  0.00135112  0.0124255 0.0000
  5   -990.2448751517  -0.001175213868 0.13521067  0.00072437  0.0061427 0.0000
                      *** Initiating the SOSCF procedure ***
                           *** Shutting down DIIS ***
                      *** Re-Reading the Fockian *** 
                      *** Removing any level shift *** 
ITER      Energy       Delta-E        Grad      Rot      Max-DP    RMS-DP
  6   -990.24510628  -0.0002311250  0.001493  0.001493  0.036592  0.000226
               *** Restarting incremental Fock matrix formation ***
  7   -990.24519599  -0.0000897127  0.000978  0.002400  0.011533  0.000185
  8   -990.24523568  -0.0000396938  0.000343  0.002513  0.010212  0.000173
  9   -990.24524177  -0.0000060827  0.000686  0.000721  0.006577  0.000086
 10   -990.24524868  -0.0000069090  0.000113  0.000188  0.002202  0.000023
 11   -990.24524874  -0.0000000656  0.000092  0.000125  0.003776  0.000020
 12   -990.24524910  -0.0000003638  0.000014  0.000039  0.003281  0.000018
 13   -990.24524911  -0.0000000041  0.000007  0.000031  0.006877  0.000044
 14   -990.24524912  -0.0000000074  0.000005  0.000013  0.003048  0.000024
                  ***Gradient check signals convergence***
              ***Rediagonalizing the Fockian in SOSCF/NRSCF***

               *****************************************************
               *                     SUCCESS                       *
               *           SCF CONVERGED AFTER  15 CYCLES          *
               *****************************************************

Old exchange energy                            =    -28.432656549 Eh
New exchange energy                            =    -28.432654671 Eh
Exchange energy change after final integration =      0.000001878 Eh
Total energy after final integration           =   -990.245247245 Eh
Final COS-X integration done in                =     3.452 sec

SMD CDS free energy correction energy :                 5.87294     Kcal/mol
Total Energy after SMD CDS correction =              -990.235888118 Eh

----------------
TOTAL SCF ENERGY
----------------

Total Energy       :         -990.23588812 Eh          -26945.68841 eV

Components:
Nuclear Repulsion  :          671.41694363 Eh           18270.18387 eV
Electronic Energy  :        -1661.65283174 Eh          -45215.87228 eV
One Electron Energy:        -2702.27292884 Eh          -73532.58472 eV
Two Electron Energy:         1040.62009709 Eh           28316.71244 eV
Max COSX asymmetry :            0.00000228 Eh               0.00006 eV
CPCM Dielectric    :           -0.14490158 Eh              -3.94297 eV
SMD CDS (Gcds)     :            0.00935913 Eh               0.25467 eV

Virial components:
Potential Energy   :        -1977.46751498 Eh          -53809.62671 eV
Kinetic Energy     :          987.23162687 Eh           26863.93830 eV
Virial Ratio       :            2.00304312


DFT components:
N(Alpha)           :       48.999860728596 electrons
N(Beta)            :       48.999860728596 electrons
N(Total)           :       97.999721457193 electrons
E(XC)              :      -73.338092888298 Eh       
DFET-embed. en.    :        0.000000000000 Eh       
CPCM Solvation Model Properties:
Surface-charge          :            0.94651614
Charge-correction       :           -0.00552386 Eh              -0.15031 eV
Free-energy (cav+disp)  :            0.00935913 Eh               0.25467 eV

---------------
SCF CONVERGENCE
---------------

  Last Energy change         ...   -7.7807e-09  Tolerance :   1.0000e-08
  Last MAX-Density change    ...    3.1086e-15  Tolerance :   1.0000e-07
  Last RMS-Density change    ...    3.9934e-17  Tolerance :   5.0000e-09
  Last Orbital Gradient      ...    1.9502e-06  Tolerance :   1.0000e-05
  Last Orbital Rotation      ...    1.8037e-06  Tolerance :   1.0000e-05

             **** THE GBW FILE WAS UPDATED (structure_opt.gbw) ****
             **** DENSITY structure_opt.scfp WAS UPDATED ****
             **** ENERGY FILE WAS UPDATED (structure_opt.en.tmp) ****
             **** THE GBW FILE WAS UPDATED (structure_opt.gbw) ****
             **** DENSITY structure_opt.scfp WAS UPDATED ****
----------------
ORBITAL ENERGIES
----------------

  NO   OCC          E(Eh)            E(eV) 
   0   2.0000     -88.719962     -2414.1929 
   1   2.0000     -24.793410      -674.6630 
   2   2.0000     -19.275597      -524.5157 
   3   2.0000     -19.243849      -523.6518 
   4   2.0000     -14.669750      -399.1842 
   5   2.0000     -14.435713      -392.8157 
   6   2.0000     -10.437799      -284.0269 
   7   2.0000     -10.364254      -282.0257 
   8   2.0000     -10.338357      -281.3210 
   9   2.0000     -10.321301      -280.8569 
  10   2.0000     -10.290659      -280.0231 
  11   2.0000     -10.235854      -278.5318 
  12   2.0000      -7.915841      -215.4010 
  13   2.0000      -5.879020      -159.9763 
  14   2.0000      -5.871585      -159.7740 
  15   2.0000      -5.871575      -159.7737 
  16   2.0000      -1.396442       -37.9991 
  17   2.0000      -1.348142       -36.6848 
  18   2.0000      -1.151395       -31.3310 
  19   2.0000      -1.109416       -30.1887 
  20   2.0000      -1.008466       -27.4418 
  21   2.0000      -0.943541       -25.6751 
  22   2.0000      -0.874073       -23.7847 
  23   2.0000      -0.836112       -22.7518 
  24   2.0000      -0.796776       -21.6814 
  25   2.0000      -0.769266       -20.9328 
  26   2.0000      -0.706048       -19.2125 
  27   2.0000      -0.686573       -18.6826 
  28   2.0000      -0.669443       -18.2165 
  29   2.0000      -0.664992       -18.0953 
  30   2.0000      -0.661686       -18.0054 
  31   2.0000      -0.633252       -17.2317 
  32   2.0000      -0.620427       -16.8827 
  33   2.0000      -0.615378       -16.7453 
  34   2.0000      -0.563911       -15.3448 
  35   2.0000      -0.537242       -14.6191 
  36   2.0000      -0.528082       -14.3698 
  37   2.0000      -0.528059       -14.3692 
  38   2.0000      -0.494338       -13.4516 
  39   2.0000      -0.494055       -13.4439 
  40   2.0000      -0.456009       -12.4086 
  41   2.0000      -0.432394       -11.7660 
  42   2.0000      -0.421562       -11.4713 
  43   2.0000      -0.416538       -11.3346 
  44   2.0000      -0.408185       -11.1073 
  45   2.0000      -0.390647       -10.6300 
  46   2.0000      -0.385065       -10.4781 
  47   2.0000      -0.258777        -7.0417 
  48   2.0000      -0.258753        -7.0410 
  49   0.0000      -0.064783        -1.7628 
  50   0.0000       0.022540         0.6133 
  51   0.0000       0.054092         1.4719 
  52   0.0000       0.055453         1.5090 
  53   0.0000       0.057664         1.5691 
  54   0.0000       0.067841         1.8461 
  55   0.0000       0.074949         2.0395 
  56   0.0000       0.088170         2.3992 
  57   0.0000       0.090539         2.4637 
  58   0.0000       0.091544         2.4910 
  59   0.0000       0.098513         2.6807 
  60   0.0000       0.114221         3.1081 
  61   0.0000       0.114934         3.1275 
  62   0.0000       0.127166         3.4604 
  63   0.0000       0.128202         3.4886 
  64   0.0000       0.129595         3.5265 
  65   0.0000       0.141004         3.8369 
  66   0.0000       0.150437         4.0936 
  67   0.0000       0.152555         4.1512 
  68   0.0000       0.160881         4.3778 
  69   0.0000       0.164802         4.4845 
  70   0.0000       0.169037         4.5997 
  71   0.0000       0.172695         4.6993 
  72   0.0000       0.174142         4.7386 
  73   0.0000       0.178475         4.8566 
  74   0.0000       0.181521         4.9394 
  75   0.0000       0.184127         5.0104 
  76   0.0000       0.191628         5.2145 
  77   0.0000       0.192074         5.2266 
  78   0.0000       0.198193         5.3931 
  79   0.0000       0.201613         5.4862 
  80   0.0000       0.210325         5.7232 
  81   0.0000       0.216044         5.8789 
  82   0.0000       0.225702         6.1417 
  83   0.0000       0.229782         6.2527 
  84   0.0000       0.233755         6.3608 
  85   0.0000       0.238546         6.4912 
  86   0.0000       0.249073         6.7776 
  87   0.0000       0.258288         7.0284 
  88   0.0000       0.263067         7.1584 
  89   0.0000       0.267547         7.2803 
  90   0.0000       0.272881         7.4255 
  91   0.0000       0.277916         7.5625 
  92   0.0000       0.278952         7.5907 
  93   0.0000       0.281943         7.6721 
  94   0.0000       0.289292         7.8720 
  95   0.0000       0.297101         8.0845 
  96   0.0000       0.304475         8.2852 
  97   0.0000       0.309647         8.4259 
  98   0.0000       0.313112         8.5202 
  99   0.0000       0.324718         8.8360 
 100   0.0000       0.327663         8.9162 
 101   0.0000       0.340326         9.2607 
 102   0.0000       0.349783         9.5181 
 103   0.0000       0.350751         9.5444 
 104   0.0000       0.360741         9.8162 
 105   0.0000       0.368560        10.0290 
 106   0.0000       0.371856        10.1187 
 107   0.0000       0.380379        10.3507 
 108   0.0000       0.397395        10.8137 
 109   0.0000       0.405313        11.0291 
 110   0.0000       0.408853        11.1255 
 111   0.0000       0.414805        11.2874 
 112   0.0000       0.420864        11.4523 
 113   0.0000       0.429512        11.6876 
 114   0.0000       0.438644        11.9361 
 115   0.0000       0.451460        12.2849 
 116   0.0000       0.457863        12.4591 
 117   0.0000       0.458737        12.4829 
 118   0.0000       0.470689        12.8081 
 119   0.0000       0.480849        13.0846 
 120   0.0000       0.492767        13.4089 
 121   0.0000       0.503937        13.7128 
 122   0.0000       0.523426        14.2432 
 123   0.0000       0.528246        14.3743 
 124   0.0000       0.530663        14.4401 
 125   0.0000       0.558327        15.1928 
 126   0.0000       0.588516        16.0143 
 127   0.0000       0.610236        16.6054 
 128   0.0000       0.614714        16.7272 
 129   0.0000       0.618938        16.8422 
 130   0.0000       0.630440        17.1551 
 131   0.0000       0.639025        17.3888 
 132   0.0000       0.650722        17.7070 
 133   0.0000       0.657831        17.9005 
 134   0.0000       0.668960        18.2033 
 135   0.0000       0.699998        19.0479 
 136   0.0000       0.701765        19.0960 
 137   0.0000       0.726678        19.7739 
 138   0.0000       0.745129        20.2760 
 139   0.0000       0.770616        20.9695 
 140   0.0000       0.771027        20.9807 
 141   0.0000       0.782597        21.2955 
 142   0.0000       0.812020        22.0962 
 143   0.0000       0.826848        22.4997 
 144   0.0000       0.836527        22.7631 
 145   0.0000       0.850009        23.1299 
 146   0.0000       0.853012        23.2116 
 147   0.0000       0.870472        23.6868 
 148   0.0000       0.902955        24.5706 
 149   0.0000       0.909403        24.7461 
 150   0.0000       0.920494        25.0479 
 151   0.0000       0.934353        25.4250 
 152   0.0000       0.953721        25.9521 
 153   0.0000       0.954580        25.9754 
 154   0.0000       0.961404        26.1611 
 155   0.0000       0.972498        26.4630 
 156   0.0000       0.976012        26.5586 
 157   0.0000       0.983065        26.7505 
 158   0.0000       1.002682        27.2844 
 159   0.0000       1.004437        27.3321 
 160   0.0000       1.004543        27.3350 
 161   0.0000       1.037020        28.2187 
 162   0.0000       1.046948        28.4889 
 163   0.0000       1.062079        28.9006 
 164   0.0000       1.074285        29.2328 
 165   0.0000       1.080294        29.3963 
 166   0.0000       1.085567        29.5398 
 167   0.0000       1.142716        31.0949 
 168   0.0000       1.152118        31.3507 
 169   0.0000       1.158154        31.5150 
 170   0.0000       1.175575        31.9890 
 171   0.0000       1.186868        32.2963 
 172   0.0000       1.199576        32.6421 
 173   0.0000       1.212561        32.9955 
 174   0.0000       1.253503        34.1096 
 175   0.0000       1.265550        34.4374 
 176   0.0000       1.275962        34.7207 
 177   0.0000       1.278992        34.8031 
 178   0.0000       1.281303        34.8660 
 179   0.0000       1.294507        35.2253 
 180   0.0000       1.300460        35.3873 
 181   0.0000       1.358591        36.9691 
 182   0.0000       1.393992        37.9325 
 183   0.0000       1.405903        38.2566 
 184   0.0000       1.471105        40.0308 
 185   0.0000       1.506531        40.9948 
 186   0.0000       1.545819        42.0639 
 187   0.0000       1.586689        43.1760 
 188   0.0000       1.589632        43.2561 
 189   0.0000       1.590988        43.2930 
 190   0.0000       1.617402        44.0117 
 191   0.0000       1.631568        44.3972 
 192   0.0000       1.655177        45.0397 
 193   0.0000       1.656839        45.0849 
 194   0.0000       1.692942        46.0673 
 195   0.0000       1.694616        46.1128 
 196   0.0000       1.705582        46.4113 
 197   0.0000       1.715218        46.6735 
 198   0.0000       1.749057        47.5943 
 199   0.0000       1.767357        48.0922 
 200   0.0000       1.787486        48.6400 
 201   0.0000       1.809452        49.2377 
 202   0.0000       1.810541        49.2673 
 203   0.0000       1.815736        49.4087 
 204   0.0000       1.843138        50.1543 
 205   0.0000       1.845988        50.2319 
 206   0.0000       1.869169        50.8627 
 207   0.0000       1.913417        52.0667 
 208   0.0000       1.933898        52.6240 
 209   0.0000       1.949647        53.0526 
 210   0.0000       1.970589        53.6224 
 211   0.0000       1.973114        53.6912 
 212   0.0000       1.990685        54.1693 
 213   0.0000       2.011304        54.7304 
 214   0.0000       2.032052        55.2950 
 215   0.0000       2.045845        55.6703 
 216   0.0000       2.052044        55.8389 
 217   0.0000       2.110849        57.4391 
 218   0.0000       2.140502        58.2460 
 219   0.0000       2.146979        58.4223 
 220   0.0000       2.168463        59.0069 
 221   0.0000       2.173240        59.1369 
 222   0.0000       2.176350        59.2215 
 223   0.0000       2.205769        60.0220 
 224   0.0000       2.292748        62.3888 
 225   0.0000       2.324030        63.2401 
 226   0.0000       2.332210        63.4627 
 227   0.0000       2.332577        63.4727 
 228   0.0000       2.399148        65.2841 
 229   0.0000       2.429224        66.1025 
 230   0.0000       2.494307        67.8735 
 231   0.0000       2.563606        69.7593 
 232   0.0000       2.590098        70.4801 
 233   0.0000       2.596431        70.6525 
 234   0.0000       2.604143        70.8623 
 235   0.0000       2.627477        71.4973 
 236   0.0000       2.659497        72.3686 
 237   0.0000       2.661337        72.4187 
 238   0.0000       2.673000        72.7360 
 239   0.0000       2.674247        72.7700 
 240   0.0000       2.692184        73.2581 
 241   0.0000       2.767185        75.2989 
 242   0.0000       2.785088        75.7861 
 243   0.0000       2.828483        76.9669 
 244   0.0000       2.839787        77.2745 
 245   0.0000       2.858050        77.7715 
 246   0.0000       2.867532        78.0295 
 247   0.0000       2.883196        78.4557 
 248   0.0000       2.893977        78.7491 
 249   0.0000       2.901970        78.9666 
 250   0.0000       2.931037        79.7576 
 251   0.0000       2.937666        79.9380 
 252   0.0000       2.960574        80.5613 
 253   0.0000       2.976560        80.9963 
 254   0.0000       2.986560        81.2684 
 255   0.0000       3.001583        81.6772 
 256   0.0000       3.009243        81.8857 
 257   0.0000       3.097715        84.2931 
 258   0.0000       3.152934        85.7957 
 259   0.0000       3.188863        86.7734 
 260   0.0000       3.268565        88.9422 
 261   0.0000       3.307514        90.0020 
 262   0.0000       3.308129        90.0188 
 263   0.0000       3.340122        90.8893 
 264   0.0000       3.368184        91.6530 
 265   0.0000       3.454175        93.9929 
 266   0.0000       3.496982        95.1577 
 267   0.0000       3.558511        96.8320 
 268   0.0000       3.593213        97.7763 
 269   0.0000       3.681159       100.1694 
 270   0.0000       3.704187       100.7960 
 271   0.0000       3.753371       102.1344 
 272   0.0000       3.853311       104.8539 
 273   0.0000       3.887741       105.7908 
 274   0.0000       3.888939       105.8234 
 275   0.0000       3.890845       105.8753 
 276   0.0000       3.903989       106.2329 
 277   0.0000       3.924396       106.7882 
 278   0.0000       4.010816       109.1399 
 279   0.0000       4.059335       110.4601 
 280   0.0000       4.120005       112.1110 
 281   0.0000       4.143617       112.7536 
 282   0.0000       4.169041       113.4454 
 283   0.0000       4.405469       119.8789 
 284   0.0000       4.477623       121.8423 
 285   0.0000       4.506490       122.6278 
 286   0.0000       4.764281       129.6427 
 287   0.0000       4.942971       134.5051 
 288   0.0000       5.077911       138.1770 
 289   0.0000       5.111510       139.0913 
 290   0.0000       5.194060       141.3376 
 291   0.0000       5.224025       142.1529 
 292   0.0000       5.314535       144.6159 
 293   0.0000       5.699766       155.0985 
 294   0.0000       6.131397       166.8438 
 295   0.0000       6.407752       174.3638 
 296   0.0000       6.539491       177.9486 
 297   0.0000       6.841846       186.1761 
 298   0.0000       7.977918       217.0902 
 299   0.0000      17.545968       477.4501 
 300   0.0000      17.548512       477.5193 
 301   0.0000      17.636103       479.9028 
 302   0.0000      23.649119       643.5252 
 303   0.0000      23.890245       650.0866 
 304   0.0000      23.984095       652.6404 
 305   0.0000      24.029813       653.8845 
 306   0.0000      24.071008       655.0054 
 307   0.0000      24.181112       658.0015 
 308   0.0000      35.375984       962.6295 
 309   0.0000      35.656877       970.2730 
 310   0.0000      49.902561      1357.9177 
 311   0.0000      49.966537      1359.6586 
 312   0.0000      66.792320      1817.5114 
 313   0.0000     188.966907      5142.0510 

--------------------
FRAGMENT INFORMATION
--------------------
Fragment  1:    0   1   2   3   4   5 
Fragment  2:    6   7   8   9  10  11  12 
Fragment  3:   13  14  15  16 
Fragment  4:   17 


                    ********************************
                    * MULLIKEN POPULATION ANALYSIS *
                    ********************************

-------------------------
MULLIKEN FRAGMENT CHARGES
-------------------------
 Fragment   0 :  -0.441226
 Fragment   1 :   0.442346
 Fragment   2 :  -0.030490
 Fragment   3 :  -0.970631
Sum of fragment charges:   -1.0000000

---------------------------------
MULLIKEN FRAGMENT OVERLAP CHARGES
---------------------------------
                  0          1          2          3    
      0      20.505796   0.618081  -0.000199  -0.000008
      1       0.618081  34.948478   0.000751   0.001556
      2      -0.000199   0.000751  11.659831  -0.680230
      3      -0.000008   0.001556  -0.680230  17.309972

-----------------------
MULLIKEN ATOMIC CHARGES
-----------------------
   0 C :   -0.024850
   1 N :   -0.205139
   2 C :   -0.293171
   3 C :   -0.261865
   4 C :    0.427467
   5 C :   -0.083667
   6 N :   -0.098145
   7 O :   -0.025622
   8 O :   -0.231351
   9 F :   -0.105471
  10 H :    0.296184
  11 H :    0.281036
  12 H :    0.325716
  13 C :   -0.411066
  14 H :    0.126253
  15 H :    0.126966
  16 H :    0.127357
  17 S :   -0.970631
Sum of atomic charges:   -1.0000000

--------------------------------
MULLIKEN REDUCED ORBITAL CHARGES
--------------------------------
  0 C s       :     3.272903  s :     3.272903
      pz      :     0.675746  p :     2.591491
      px      :     0.973889
      py      :     0.941856
      dz2     :     0.052752  d :     0.160455
      dxz     :     0.048844
      dyz     :     0.028444
      dx2y2   :     0.013770
      dxy     :     0.016645
  1 N s       :     3.625787  s :     3.625787
      pz      :     1.142367  p :     3.548826
      px      :     1.241669
      py      :     1.164790
      dz2     :     0.008166  d :     0.030526
      dxz     :     0.007238
      dyz     :     0.004759
      dx2y2   :     0.005504
      dxy     :     0.004859
  2 C s       :     3.375975  s :     3.375975
      pz      :     0.811653  p :     2.833050
      px      :     1.167715
      py      :     0.853682
      dz2     :     0.023581  d :     0.084147
      dxz     :     0.032194
      dyz     :     0.014803
      dx2y2   :     0.007221
      dxy     :     0.006348
  3 C s       :     3.213501  s :     3.213501
      pz      :     1.157556  p :     2.995201
      px      :     0.870418
      py      :     0.967227
      dz2     :     0.015295  d :     0.053164
      dxz     :     0.017413
      dyz     :     0.005092
      dx2y2   :     0.008213
      dxy     :     0.007150
  4 C s       :     2.513182  s :     2.513182
      pz      :     0.910964  p :     3.002259
      px      :     1.243523
      py      :     0.847772
      dz2     :     0.016546  d :     0.057092
      dxz     :     0.015858
      dyz     :     0.010568
      dx2y2   :     0.007214
      dxy     :     0.006905
  5 C s       :     3.285394  s :     3.285394
      pz      :     1.113919  p :     2.725131
      px      :     0.488193
      py      :     1.123020
      dz2     :     0.013628  d :     0.073142
      dxz     :     0.029769
      dyz     :     0.010337
      dx2y2   :     0.011220
      dxy     :     0.008188
  6 N s       :     3.607161  s :     3.607161
      pz      :     1.064655  p :     3.382006
      px      :     1.214232
      py      :     1.103120
      dz2     :     0.027713  d :     0.108978
      dxz     :     0.039366
      dyz     :     0.023074
      dx2y2   :     0.008546
      dxy     :     0.010279
  7 O s       :     3.759197  s :     3.759197
      pz      :     1.022660  p :     4.247717
      px      :     1.827359
      py      :     1.397698
      dz2     :     0.009715  d :     0.018708
      dxz     :     0.003514
      dyz     :     0.005310
      dx2y2   :     0.000102
      dxy     :     0.000067
  8 O s       :     3.821197  s :     3.821197
      pz      :     1.622408  p :     4.398037
      px      :     1.218117
      py      :     1.557512
      dz2     :     0.001058  d :     0.012116
      dxz     :     0.004900
      dyz     :     0.000879
      dx2y2   :     0.003118
      dxy     :     0.002161
  9 F s       :     3.920293  s :     3.920293
      pz      :     1.389658  p :     5.179845
      px      :     1.916001
      py      :     1.874186
      dz2     :     0.003097  d :     0.005333
      dxz     :     0.000998
      dyz     :     0.001201
      dx2y2   :     0.000027
      dxy     :     0.000009
 10 H s       :     0.679916  s :     0.679916
      pz      :     0.005481  p :     0.023900
      px      :     0.014120
      py      :     0.004299
 11 H s       :     0.694002  s :     0.694002
      pz      :     0.016372  p :     0.024962
      px      :     0.003655
      py      :     0.004935
 12 H s       :     0.648762  s :     0.648762
      pz      :     0.007743  p :     0.025522
      px      :     0.013379
      py      :     0.004400
 13 C s       :     3.270440  s :     3.270440
      pz      :     1.051372  p :     3.087988
      px      :     1.005164
      py      :     1.031452
      dz2     :     0.014855  d :     0.052638
      dxz     :     0.008588
      dyz     :     0.004666
      dx2y2   :     0.015789
      dxy     :     0.008740
 14 H s       :     0.851074  s :     0.851074
      pz      :     0.013285  p :     0.022673
      px      :     0.004714
      py      :     0.004675
 15 H s       :     0.850294  s :     0.850294
      pz      :     0.005266  p :     0.022740
      px      :     0.004819
      py      :     0.012655
 16 H s       :     0.849924  s :     0.849924
      pz      :     0.006159  p :     0.022718
      px      :     0.010990
      py      :     0.005570
 17 S s       :     6.016969  s :     6.016969
      pz      :     3.893781  p :    10.922228
      px      :     3.365989
      py      :     3.662458
      dz2     :     0.004227  d :     0.031434
      dxz     :     0.005801
      dyz     :     0.003139
      dx2y2   :     0.005194
      dxy     :     0.013073


                     *******************************
                     * LOEWDIN POPULATION ANALYSIS *
                     *******************************

------------------------
LOEWDIN FRAGMENT CHARGES
------------------------
 Fragment   0 :   0.057248
 Fragment   1 :  -0.057040
 Fragment   2 :  -0.355695
 Fragment   3 :  -0.644513

----------------------------
LOEWDIN FRAGMENT BOND ORDERS
----------------------------
                  0          1          2          3    
      0      56.961935   6.778581   0.000026   0.000254
      1       6.778581  43.788454   0.000259   0.001505
      2       0.000026   0.000259  15.419264   1.743785
      3       0.000254   0.001505   1.743785  16.644513

----------------------
LOEWDIN ATOMIC CHARGES
----------------------
   0 C :    0.111465
   1 N :   -0.111948
   2 C :    0.077197
   3 C :   -0.033843
   4 C :    0.078101
   5 C :   -0.063724
   6 N :    0.241032
   7 O :   -0.153301
   8 O :   -0.338369
   9 F :   -0.078154
  10 H :    0.086989
  11 H :    0.084544
  12 H :    0.100219
  13 C :   -0.358964
  14 H :    0.001276
  15 H :    0.000988
  16 H :    0.001005
  17 S :   -0.644513

-------------------------------
LOEWDIN REDUCED ORBITAL CHARGES
-------------------------------
  0 C s       :     2.743700  s :     2.743700
      pz      :     0.849338  p :     2.815718
      px      :     1.080493
      py      :     0.885888
      dz2     :     0.112511  d :     0.329116
      dxz     :     0.100719
      dyz     :     0.050393
      dx2y2   :     0.033873
      dxy     :     0.031620
  1 N s       :     3.151603  s :     3.151603
      pz      :     1.301221  p :     3.903506
      px      :     1.416922
      py      :     1.185363
      dz2     :     0.017387  d :     0.056839
      dxz     :     0.015718
      dyz     :     0.007793
      dx2y2   :     0.009543
      dxy     :     0.006398
  2 C s       :     2.786872  s :     2.786872
      pz      :     1.032883  p :     2.954085
      px      :     1.096524
      py      :     0.824678
      dz2     :     0.060303  d :     0.181845
      dxz     :     0.069055
      dyz     :     0.027984
      dx2y2   :     0.014015
      dxy     :     0.010488
  3 C s       :     2.781236  s :     2.781236
      pz      :     1.081328  p :     3.128246
      px      :     1.092147
      py      :     0.954770
      dz2     :     0.034120  d :     0.124362
      dxz     :     0.045068
      dyz     :     0.008010
      dx2y2   :     0.022212
      dxy     :     0.014952
  4 C s       :     2.779243  s :     2.779243
      pz      :     1.065861  p :     3.014366
      px      :     1.108240
      py      :     0.840266
      dz2     :     0.040902  d :     0.128290
      dxz     :     0.039165
      dyz     :     0.021249
      dx2y2   :     0.015051
      dxy     :     0.011923
  5 C s       :     2.757939  s :     2.757939
      pz      :     1.088509  p :     3.125453
      px      :     0.957401
      py      :     1.079542
      dz2     :     0.039913  d :     0.180332
      dxz     :     0.071776
      dyz     :     0.019828
      dx2y2   :     0.031419
      dxy     :     0.017397
  6 N s       :     3.052177  s :     3.052177
      pz      :     1.206138  p :     3.500437
      px      :     1.215088
      py      :     1.079211
      dz2     :     0.060436  d :     0.206353
      dxz     :     0.076195
      dyz     :     0.035691
      dx2y2   :     0.017519
      dxy     :     0.016513
  7 O s       :     3.580881  s :     3.580881
      pz      :     1.283533  p :     4.540098
      px      :     1.838792
      py      :     1.417773
      dz2     :     0.020439  d :     0.032321
      dxz     :     0.005158
      dyz     :     0.006534
      dx2y2   :     0.000119
      dxy     :     0.000071
  8 O s       :     3.667277  s :     3.667277
      pz      :     1.709866  p :     4.650604
      px      :     1.369691
      py      :     1.571047
      dz2     :     0.001545  d :     0.020488
      dxz     :     0.009264
      dyz     :     0.001173
      dx2y2   :     0.005713
      dxy     :     0.002793
  9 F s       :     3.714994  s :     3.714994
      pz      :     1.535170  p :     5.355789
      px      :     1.934350
      py      :     1.886269
      dz2     :     0.004767  d :     0.007371
      dxz     :     0.001184
      dyz     :     0.001375
      dx2y2   :     0.000037
      dxy     :     0.000009
 10 H s       :     0.842612  s :     0.842612
      pz      :     0.016676  p :     0.070399
      px      :     0.042291
      py      :     0.011432
 11 H s       :     0.843006  s :     0.843006
      pz      :     0.047832  p :     0.072450
      px      :     0.011211
      py      :     0.013408
 12 H s       :     0.826550  s :     0.826550
      pz      :     0.023097  p :     0.073231
      px      :     0.038719
      py      :     0.011415
 13 C s       :     2.858462  s :     2.858462
      pz      :     1.121462  p :     3.393565
      px      :     1.141661
      py      :     1.130442
      dz2     :     0.029789  d :     0.106936
      dxz     :     0.017327
      dyz     :     0.008894
      dx2y2   :     0.031682
      dxy     :     0.019244
 14 H s       :     0.927122  s :     0.927122
      pz      :     0.043157  p :     0.071602
      px      :     0.014540
      py      :     0.013905
 15 H s       :     0.927153  s :     0.927153
      pz      :     0.015563  p :     0.071859
      px      :     0.014708
      py      :     0.041587
 16 H s       :     0.927163  s :     0.927163
      pz      :     0.018536  p :     0.071832
      px      :     0.036510
      py      :     0.016787
 17 S s       :     5.612892  s :     5.612892
      pz      :     3.858807  p :    10.994436
      px      :     3.453938
      py      :     3.681690
      dz2     :     0.004994  d :     0.037186
      dxz     :     0.006833
      dyz     :     0.003684
      dx2y2   :     0.005940
      dxy     :     0.015735


                      *****************************
                      * MAYER POPULATION ANALYSIS *
                      *****************************

  NA   - Mulliken gross atomic population
  ZA   - Total nuclear charge
  QA   - Mulliken gross atomic charge
  VA   - Mayer's total valence
  BVA  - Mayer's bonded valence
  FA   - Mayer's free valence

  ATOM       NA         ZA         QA         VA         BVA        FA
  0 C      6.0248     6.0000    -0.0248     4.3392     4.3392     0.0000
  1 N      7.2051     7.0000    -0.2051     2.7018     2.7018    -0.0000
  2 C      6.2932     6.0000    -0.2932     3.9784     3.9784    -0.0000
  3 C      6.2619     6.0000    -0.2619     4.3420     4.3420    -0.0000
  4 C      5.5725     6.0000     0.4275     4.1693     4.1693    -0.0000
  5 C      6.0837     6.0000    -0.0837     3.3512     3.3512     0.0000
  6 N      7.0981     7.0000    -0.0981     3.9303     3.9303    -0.0000
  7 O      8.0256     8.0000    -0.0256     2.1838     2.1838    -0.0000
  8 O      8.2314     8.0000    -0.2314     1.9971     1.9971    -0.0000
  9 F      9.1055     9.0000    -0.1055     0.9639     0.9639     0.0000
 10 H      0.7038     1.0000     0.2962     0.8711     0.8711    -0.0000
 11 H      0.7190     1.0000     0.2810     0.9037     0.9037    -0.0000
 12 H      0.6743     1.0000     0.3257     0.8346     0.8346     0.0000
 13 C      6.4111     6.0000    -0.4111     3.5745     3.5745    -0.0000
 14 H      0.8737     1.0000     0.1263     0.9432     0.9432     0.0000
 15 H      0.8730     1.0000     0.1270     0.9426     0.9426    -0.0000
 16 H      0.8726     1.0000     0.1274     0.9418     0.9418    -0.0000
 17 S     16.9706    16.0000    -0.9706     0.5973     0.5973     0.0000

  Mayer bond orders larger than 0.100000
B(  0-C ,  1-N ) :   1.2961 B(  0-C ,  2-C ) :   0.1911 B(  0-C ,  3-C ) :   0.1472 
B(  0-C ,  4-C ) :   0.3176 B(  0-C ,  5-C ) :   1.1921 B(  0-C ,  6-N ) :  -0.1889 
B(  0-C ,  9-F ) :   1.3996 B(  1-N ,  2-C ) :   1.1822 B(  1-N ,  5-C ) :   0.1784 
B(  2-C ,  3-C ) :   1.5879 B(  2-C , 10-H ) :   0.8829 B(  3-C ,  4-C ) :   1.4778 
B(  3-C ,  8-O ) :   0.1322 B(  3-C , 11-H ) :   0.8433 B(  4-C ,  5-C ) :   1.5920 
[...]
 289   0.0000       5.134049       139.7046 
 290   0.0000       5.210094       141.7739 
 291   0.0000       5.284179       143.7898 
 292   0.0000       5.370302       146.1333 
 293   0.0000       5.851185       159.2188 
 294   0.0000       6.341838       172.5702 
 295   0.0000       6.416347       174.5977 
 296   0.0000       6.550217       178.2405 
 297   0.0000       6.862917       186.7495 
 298   0.0000       7.977977       217.0918 
 299   0.0000      17.545938       477.4493 
 300   0.0000      17.548323       477.5142 
 301   0.0000      17.636078       479.9021 
 302   0.0000      23.700854       644.9330 
 303   0.0000      23.954171       651.8261 
 304   0.0000      24.020138       653.6212 
 305   0.0000      24.030003       653.8896 
 306   0.0000      24.134519       656.7336 
 307   0.0000      24.245548       659.7549 
 308   0.0000      35.452218       964.7039 
 309   0.0000      35.736602       972.4424 
 310   0.0000      49.926566      1358.5709 
 311   0.0000      50.033437      1361.4790 
 312   0.0000      66.806153      1817.8879 
 313   0.0000     188.966969      5142.0527 

--------------------
FRAGMENT INFORMATION
--------------------
Fragment  1:    0   1   2   3   4   5 
Fragment  2:    6   7   8   9  10  11  12 
Fragment  3:   13  14  15  16 
Fragment  4:   17 


                    ********************************
                    * MULLIKEN POPULATION ANALYSIS *
                    ********************************

-------------------------
MULLIKEN FRAGMENT CHARGES
-------------------------
 Fragment   0 :  -0.476943
 Fragment   1 :   0.477953
 Fragment   2 :  -0.030671
 Fragment   3 :  -0.970339
Sum of fragment charges:   -1.0000000

---------------------------------
MULLIKEN FRAGMENT OVERLAP CHARGES
---------------------------------
                  0          1          2          3    
      0      17.976775   0.513921  -0.000137   0.000002
      1       0.513921  35.008644   0.000756   0.001256
      2      -0.000137   0.000756  11.659096  -0.677646
      3       0.000002   0.001256  -0.677646  17.308533

-----------------------
MULLIKEN ATOMIC CHARGES
-----------------------
   0 C :    0.008713
   1 N :   -0.196953
   2 C :   -0.278364
   3 C :   -0.333543
   4 C :    0.508847
   5 C :   -0.185643
   6 N :   -0.039344
   7 O :   -0.136084
   8 O :   -0.108665
   9 F :   -0.122752
  10 H :    0.284106
  11 H :    0.278473
  12 H :    0.322219
  13 C :   -0.411235
  14 H :    0.126504
  15 H :    0.126836
  16 H :    0.127224
  17 S :   -0.970339
Sum of atomic charges:   -1.0000000

--------------------------------
MULLIKEN REDUCED ORBITAL CHARGES
--------------------------------
  0 C s       :     3.231059  s :     3.231059
      pz      :     0.669423  p :     2.590311
      px      :     0.974608
      py      :     0.946280
      dz2     :     0.057144  d :     0.169918
      dxz     :     0.050421
      dyz     :     0.029379
      dx2y2   :     0.014629
      dxy     :     0.018343
  1 N s       :     3.605753  s :     3.605753
      pz      :     1.150606  p :     3.556699
      px      :     1.251794
      py      :     1.154298
      dz2     :     0.008731  d :     0.034501
      dxz     :     0.008620
      dyz     :     0.005245
      dx2y2   :     0.006080
      dxy     :     0.005825
  2 C s       :     3.315056  s :     3.315056
      pz      :     0.825281  p :     2.874362
      px      :     1.176566
      py      :     0.872515
      dz2     :     0.025127  d :     0.088946
      dxz     :     0.033533
      dyz     :     0.015890
      dx2y2   :     0.007881
      dxy     :     0.006515
  3 C s       :     3.266232  s :     3.266232
      pz      :     1.157258  p :     3.011664
      px      :     0.884791
      py      :     0.969615
      dz2     :     0.015901  d :     0.055647
      dxz     :     0.018400
      dyz     :     0.005649
      dx2y2   :     0.008178
      dxy     :     0.007519
  4 C s       :     2.397417  s :     2.397417
      pz      :     0.939093  p :     3.034065
      px      :     1.243709
      py      :     0.851263
      dz2     :     0.017215  d :     0.059671
      dxz     :     0.016123
      dyz     :     0.011308
      dx2y2   :     0.007813
      dxy     :     0.007212
  5 C s       :     3.341869  s :     3.341869
      pz      :     1.134770  p :     2.770200
      px      :     0.508203
      py      :     1.127227
      dz2     :     0.013160  d :     0.073573
      dxz     :     0.030906
      dyz     :     0.010294
      dx2y2   :     0.011063
      dxy     :     0.008150
  6 N s       :     3.507626  s :     3.507626
      pz      :     1.047853  p :     3.392826
      px      :     1.235374
      py      :     1.109599
      dz2     :     0.038130  d :     0.138892
      dxz     :     0.045095
      dyz     :     0.029078
      dx2y2   :     0.011919
      dxy     :     0.014670
  7 O s       :     3.784269  s :     3.784269
      pz      :     1.019711  p :     4.333639
      px      :     1.839091
      py      :     1.474837
      dz2     :     0.009757  d :     0.018177
      dxz     :     0.003259
      dyz     :     0.005003
      dx2y2   :     0.000096
      dxy     :     0.000062
  8 O s       :     3.779482  s :     3.779482
      pz      :     1.546535  p :     4.309037
      px      :     1.331246
      py      :     1.431256
      dz2     :     0.002427  d :     0.020146
      dxz     :     0.007426
      dyz     :     0.002082
      dx2y2   :     0.004200
      dxy     :     0.004012
  9 F s       :     3.919484  s :     3.919484
      pz      :     1.400033  p :     5.198038
      px      :     1.918683
      py      :     1.879322
      dz2     :     0.003046  d :     0.005230
      dxz     :     0.000973
      dyz     :     0.001171
      dx2y2   :     0.000030
      dxy     :     0.000010
 10 H s       :     0.692603  s :     0.692603
      pz      :     0.004512  p :     0.023290
      px      :     0.014453
      py      :     0.004326
 11 H s       :     0.696339  s :     0.696339
      pz      :     0.016408  p :     0.025189
      px      :     0.003789
      py      :     0.004991
 12 H s       :     0.651931  s :     0.651931
      pz      :     0.007429  p :     0.025850
      px      :     0.013995
      py      :     0.004426
 13 C s       :     3.270596  s :     3.270596
      pz      :     1.051451  p :     3.088001
      px      :     1.005116
      py      :     1.031434
      dz2     :     0.014911  d :     0.052638
      dxz     :     0.008527
      dyz     :     0.004670
      dx2y2   :     0.015791
      dxy     :     0.008739
 14 H s       :     0.850786  s :     0.850786
      pz      :     0.013299  p :     0.022710
      px      :     0.004722
      py      :     0.004689
 15 H s       :     0.850442  s :     0.850442
      pz      :     0.005262  p :     0.022722
      px      :     0.004808
      py      :     0.012652
 16 H s       :     0.850069  s :     0.850069
      pz      :     0.006136  p :     0.022707
      px      :     0.010997
      py      :     0.005574
 17 S s       :     6.016637  s :     6.016637
      pz      :     3.892304  p :    10.922268
      px      :     3.366183
      py      :     3.663781
      dz2     :     0.004210  d :     0.031434
      dxz     :     0.005845
      dyz     :     0.003155
      dx2y2   :     0.005196
      dxy     :     0.013028


                     *******************************
                     * LOEWDIN POPULATION ANALYSIS *
                     *******************************

------------------------
LOEWDIN FRAGMENT CHARGES
------------------------
 Fragment   0 :   0.031189
 Fragment   1 :  -0.030899
 Fragment   2 :  -0.355702
 Fragment   3 :  -0.644588

----------------------------
LOEWDIN FRAGMENT BOND ORDERS
----------------------------
                  0          1          2          3    
      0      57.200536   6.725345   0.000026   0.000256
      1       6.725345  44.209604   0.000258   0.001619
      2       0.000026   0.000258  15.419360   1.743766
      3       0.000256   0.001619   1.743766  16.644588

----------------------
LOEWDIN ATOMIC CHARGES
----------------------
   0 C :    0.082248
   1 N :   -0.082037
   2 C :    0.056287
   3 C :   -0.034091
   4 C :    0.073226
   5 C :   -0.064445
   6 N :    0.202320
   7 O :   -0.219026
   8 O :   -0.193724
   9 F :   -0.088931
  10 H :    0.083346
  11 H :    0.085645
  12 H :    0.099471
  13 C :   -0.358933
  14 H :    0.001051
  15 H :    0.001105
  16 H :    0.001075
  17 S :   -0.644588

-------------------------------
LOEWDIN REDUCED ORBITAL CHARGES
-------------------------------
  0 C s       :     2.731124  s :     2.731124
      pz      :     0.851629  p :     2.836021
      px      :     1.095797
      py      :     0.888595
      dz2     :     0.121774  d :     0.350608
      dxz     :     0.104067
      dyz     :     0.052070
      dx2y2   :     0.037198
      dxy     :     0.035499
  1 N s       :     3.109083  s :     3.109083
      pz      :     1.300194  p :     3.908015
      px      :     1.434068
      py      :     1.173753
      dz2     :     0.018971  d :     0.064938
      dxz     :     0.018382
      dyz     :     0.009094
      dx2y2   :     0.010690
      dxy     :     0.007802
  2 C s       :     2.774348  s :     2.774348
      pz      :     1.042518  p :     2.975679
      px      :     1.092533
      py      :     0.840628
      dz2     :     0.064212  d :     0.193687
      dxz     :     0.072986
      dyz     :     0.030583
      dx2y2   :     0.015177
      dxy     :     0.010728
  3 C s       :     2.772460  s :     2.772460
      pz      :     1.079541  p :     3.132131
      px      :     1.096771
      py      :     0.955820
      dz2     :     0.035221  d :     0.129499
      dxz     :     0.047260
      dyz     :     0.008774
      dx2y2   :     0.022403
      dxy     :     0.015841
  4 C s       :     2.769187  s :     2.769187
      pz      :     1.074785  p :     3.022776
      px      :     1.105132
      py      :     0.842859
      dz2     :     0.042575  d :     0.134810
      dxz     :     0.040564
      dyz     :     0.022860
      dx2y2   :     0.016224
      dxy     :     0.012587
  5 C s       :     2.753197  s :     2.753197
      pz      :     1.090331  p :     3.129224
      px      :     0.958856
      py      :     1.080037
      dz2     :     0.039627  d :     0.182024
      dxz     :     0.074084
      dyz     :     0.020013
      dx2y2   :     0.030927
      dxy     :     0.017373
  6 N s       :     2.997996  s :     2.997996
      pz      :     1.219936  p :     3.530934
      px      :     1.230482
      py      :     1.080516
      dz2     :     0.080746  d :     0.268750
      dxz     :     0.092539
      dyz     :     0.045945
      dx2y2   :     0.025609
      dxy     :     0.023911
  7 O s       :     3.574112  s :     3.574112
      pz      :     1.275080  p :     4.613275
      px      :     1.847669
      py      :     1.490525
      dz2     :     0.020471  d :     0.031639
      dxz     :     0.004823
      dyz     :     0.006163
      dx2y2   :     0.000116
      dxy     :     0.000066
  8 O s       :     3.548558  s :     3.548558
      pz      :     1.673212  p :     4.609879
      px      :     1.487108
      py      :     1.449560
      dz2     :     0.003689  d :     0.035287
      dxz     :     0.015314
      dyz     :     0.002830
      dx2y2   :     0.008197
      dxy     :     0.005257
  9 F s       :     3.713832  s :     3.713832
      pz      :     1.539868  p :     5.367844
      px      :     1.937235
      py      :     1.890741
      dz2     :     0.004689  d :     0.007255
      dxz     :     0.001172
      dyz     :     0.001345
      dx2y2   :     0.000040
      dxy     :     0.000010
 10 H s       :     0.848053  s :     0.848053
      pz      :     0.014116  p :     0.068601
      px      :     0.042799
      py      :     0.011686
 11 H s       :     0.842182  s :     0.842182
      pz      :     0.047388  p :     0.072173
      px      :     0.011374
      py      :     0.013411
 12 H s       :     0.827072  s :     0.827072
      pz      :     0.021817  p :     0.073457
      px      :     0.040203
      py      :     0.011437
 13 C s       :     2.858402  s :     2.858402
      pz      :     1.121772  p :     3.393591
      px      :     1.141574
      py      :     1.130245
      dz2     :     0.029892  d :     0.106940
      dxz     :     0.017223
      dyz     :     0.008913
      dx2y2   :     0.031686
      dxy     :     0.019227
 14 H s       :     0.927173  s :     0.927173
      pz      :     0.043247  p :     0.071776
      px      :     0.014574
      py      :     0.013956
 15 H s       :     0.927123  s :     0.927123
      pz      :     0.015550  p :     0.071772
      px      :     0.014664
      py      :     0.041558
 16 H s       :     0.927147  s :     0.927147
      pz      :     0.018456  p :     0.071778
      px      :     0.036527
      py      :     0.016795
 17 S s       :     5.612887  s :     5.612887
      pz      :     3.857708  p :    10.994516
      px      :     3.454052
      py      :     3.682755
      dz2     :     0.004973  d :     0.037185
      dxz     :     0.006886
      dyz     :     0.003704
      dx2y2   :     0.005944
      dxy     :     0.015679


                      *****************************
                      * MAYER POPULATION ANALYSIS *
                      *****************************

  NA   - Mulliken gross atomic population
  ZA   - Total nuclear charge
  QA   - Mulliken gross atomic charge
  VA   - Mayer's total valence
  BVA  - Mayer's bonded valence
  FA   - Mayer's free valence

  ATOM       NA         ZA         QA         VA         BVA        FA
  0 C      5.9913     6.0000     0.0087     4.2566     4.2566    -0.0000
  1 N      7.1970     7.0000    -0.1970     2.7280     2.7280     0.0000
  2 C      6.2784     6.0000    -0.2784     4.0236     4.0236     0.0000
  3 C      6.3335     6.0000    -0.3335     4.4893     4.4893    -0.0000
  4 C      5.4912     6.0000     0.5088     4.0628     4.0628    -0.0000
  5 C      6.1856     6.0000    -0.1856     3.3811     3.3811    -0.0000
  6 N      7.0393     7.0000    -0.0393     4.0343     4.0343     0.0000
  7 O      8.1361     8.0000    -0.1361     2.1012     2.1012     0.0000
  8 O      8.1087     8.0000    -0.1087     2.1942     2.1942     0.0000
  9 F      9.1228     9.0000    -0.1228     0.9255     0.9255     0.0000
 10 H      0.7159     1.0000     0.2841     0.8738     0.8738     0.0000
 11 H      0.7215     1.0000     0.2785     0.9083     0.9083     0.0000
 12 H      0.6778     1.0000     0.3222     0.8363     0.8363     0.0000
 13 C      6.4112     6.0000    -0.4112     3.5749     3.5749    -0.0000
 14 H      0.8735     1.0000     0.1265     0.9430     0.9430    -0.0000
 15 H      0.8732     1.0000     0.1268     0.9426     0.9426    -0.0000
 16 H      0.8728     1.0000     0.1272     0.9419     0.9419     0.0000
 17 S     16.9703    16.0000    -0.9703     0.5973     0.5973     0.0000

  Mayer bond orders larger than 0.100000
B(  0-C ,  1-N ) :   1.2998 B(  0-C ,  2-C ) :   0.1739 B(  0-C ,  3-C ) :   0.1744 
B(  0-C ,  4-C ) :   0.2703 B(  0-C ,  5-C ) :   1.2215 B(  0-C ,  6-N ) :  -0.1931 
B(  0-C ,  8-O ) :  -0.1068 B(  0-C ,  9-F ) :   1.3466 B(  1-N ,  2-C ) :   1.1700 
B(  1-N ,  5-C ) :   0.1995 B(  2-C ,  3-C ) :   1.6658 B(  2-C ,  5-C ) :   0.1037 
B(  2-C , 10-H ) :   0.8841 B(  3-C ,  4-C ) :   1.4035 B(  3-C ,  5-C ) :   0.1540 
B(  3-C ,  8-O ) :   0.1596 B(  3-C , 11-H ) :   0.8383 B(  4-C ,  5-C ) :   1.5518 
B(  4-C ,  8-O ) :   0.2432 B(  4-C ,  9-F ) :  -0.1268 B(  4-C , 12-H ) :   0.7236 
B(  5-C ,  6-N ) :   0.6616 B(  5-C ,  7-O ) :  -0.1233 B(  5-C ,  8-O ) :  -0.2133 
B(  5-C ,  9-F ) :  -0.3287 B(  5-C , 12-H ) :   0.1404 B(  6-N ,  7-O ) :   1.8262 
B(  6-N ,  8-O ) :   1.8558 B(  7-O ,  8-O ) :   0.2398 B( 13-C , 14-H ) :   0.9812 
B( 13-C , 15-H ) :   0.9817 B( 13-C , 16-H ) :   0.9844 B( 13-C , 17-S ) :   0.6273 


-------
TIMINGS
-------

Total SCF time: 0 days 0 hours 0 min 11 sec 

Total time                  ....      11.242 sec
Sum of individual times     ....      10.457 sec  ( 93.0%)

Fock matrix formation       ....       8.180 sec  ( 72.8%)
  Split-RI-J                ....       0.466 sec  (  5.7% of F)
  Chain of spheres X        ....       6.545 sec  ( 80.0% of F)
  XC integration            ....       0.529 sec  (  6.5% of F)
    Basis function eval.    ....       0.051 sec  (  9.7% of XC)
    Density eval.           ....       0.068 sec  ( 12.8% of XC)
    XC-Functional eval.     ....       0.035 sec  (  6.6% of XC)
    XC-Potential eval.      ....       0.050 sec  (  9.4% of XC)
Diagonalization             ....       0.026 sec  (  0.2%)
Density matrix formation    ....       0.007 sec  (  0.1%)
Population analysis         ....       0.055 sec  (  0.5%)
Initial guess               ....       0.039 sec  (  0.3%)
Orbital Transformation      ....       0.000 sec  (  0.0%)
Orbital Orthonormalization  ....       0.020 sec  (  0.2%)
DIIS solution               ....       0.010 sec  (  0.1%)
SOSCF solution              ....       0.031 sec  (  0.3%)
Grid generation             ....       2.109 sec  ( 18.8%)

Maximum memory used throughout the entire SCF-calculation: 68.2 MB

-------------------------   --------------------
FINAL SINGLE POINT ENERGY      -990.265200107433
-------------------------   --------------------

                                *** OPTIMIZATION RUN DONE ***

                            ***************************************
                            *     ORCA property calculations      *
                            ***************************************

                                    ---------------------
                                    Active property flags
                                    ---------------------
   (+) Dipole Moment


------------------------------------------------------------------------------
                       ORCA ELECTRIC PROPERTIES CALCULATION
------------------------------------------------------------------------------

Dipole Moment Calculation                       ... on
Quadrupole Moment Calculation                   ... off
Polarizability Calculation                      ... off
GBWName                                         ... structure_opt.gbw
Electron density                                ... structure_opt.scfp
The origin for moment calculation is the CENTER OF MASS  = (-4.008030,  2.208947  2.290619)

-------------
DIPOLE MOMENT
-------------
                                X             Y             Z
Electronic contribution:     16.49486     -13.84001       9.54694
Nuclear contribution   :     -9.51980       8.77116      -0.46335
                        -----------------------------------------
Total Dipole Moment    :      6.97506      -5.06885       9.08359
                        -----------------------------------------
Magnitude (a.u.)       :     12.52423
Magnitude (Debye)      :     31.83406



--------------------
Rotational spectrum 
--------------------
 
Rotational constants in cm-1:     0.059832     0.006318     0.005940 
Rotational constants in MHz :  1793.707935   189.400032   178.079643 

 Dipole components along the rotational axes: 
x,y,z [a.u.] :   -12.328269     2.096119    -0.690171 
x,y,z [Debye]:   -31.335970     5.327911    -1.754276 

 

Timings for individual modules:

Sum of individual times         ...     1225.921 sec (=  20.432 min)
GTO integral calculation        ...       68.020 sec (=   1.134 min)   5.5 %
SCF iterations                  ...      943.518 sec (=  15.725 min)  77.0 %
SCF Gradient evaluation         ...      212.865 sec (=   3.548 min)  17.4 %
Geometry relaxation             ...        1.517 sec (=   0.025 min)   0.1 %
                             ****ORCA TERMINATED NORMALLY****
TOTAL RUN TIME: 0 days 0 hours 21 minutes 46 seconds 561 msec
