
                                 *****************
                                 * O   R   C   A *
                                 *****************

                                            #,                                       
                                            ###                                      
                                            ####                                     
                                            #####                                    
                                            ######                                   
                                           ########,                                 
                                     ,,################,,,,,                         
                               ,,#################################,,                 
                          ,,##########################################,,             
                       ,#########################################, ''#####,          
                    ,#############################################,,   '####,        
                  ,##################################################,,,,####,       
                ,###########''''           ''''###############################       
              ,#####''   ,,,,##########,,,,          '''####'''          '####       
            ,##' ,,,,###########################,,,                        '##       
           ' ,,###''''                  '''############,,,                           
         ,,##''                                '''############,,,,        ,,,,,,###''
      ,#''                                            '''#######################'''  
     '                                                          ''''####''''         
             ,#######,   #######,   ,#######,      ##                                
            ,#'     '#,  ##    ##  ,#'     '#,    #''#        ######   ,####,        
            ##       ##  ##   ,#'  ##            #'  '#       #        #'  '#        
            ##       ##  #######   ##           ,######,      #####,   #    #        
            '#,     ,#'  ##    ##  '#,     ,#' ,#      #,         ##   #,  ,#        
             '#######'   ##     ##  '#######'  #'      '#     #####' # '####'        



                  #######################################################
                  #                        -***-                        #
                  #          Department of theory and spectroscopy      #
                  #    Directorship and core code : Frank Neese         #
                  #        Max Planck Institute fuer Kohlenforschung    #
                  #                Kaiser Wilhelm Platz 1               #
                  #                 D-45470 Muelheim/Ruhr               #
                  #                      Germany                        #
                  #                                                     #
                  #                  All rights reserved                #
                  #                        -***-                        #
                  #######################################################


                         Program Version 5.0.4 -  RELEASE  -


 With contributions from (in alphabetic order):
   Daniel Aravena         : Magnetic Suceptibility
   Michael Atanasov       : Ab Initio Ligand Field Theory (pilot matlab implementation)
   Alexander A. Auer      : GIAO ZORA, VPT2 properties, NMR spectrum
   Ute Becker             : Parallelization
   Giovanni Bistoni       : ED, misc. LED, open-shell LED, HFLD
   Martin Brehm           : Molecular dynamics
   Dmytro Bykov           : SCF Hessian
   Vijay G. Chilkuri      : MRCI spin determinant printing, contributions to CSF-ICE
   Dipayan Datta          : RHF DLPNO-CCSD density
   Achintya Kumar Dutta   : EOM-CC, STEOM-CC
   Dmitry Ganyushin       : Spin-Orbit,Spin-Spin,Magnetic field MRCI
   Miquel Garcia          : C-PCM and meta-GGA Hessian, CC/C-PCM, Gaussian charge scheme
   Yang Guo               : DLPNO-NEVPT2, F12-NEVPT2, CIM, IAO-localization
   Andreas Hansen         : Spin unrestricted coupled pair/coupled cluster methods
   Benjamin Helmich-Paris : MC-RPA, TRAH-SCF, COSX integrals
   Lee Huntington         : MR-EOM, pCC
   Robert Izsak           : Overlap fitted RIJCOSX, COSX-SCS-MP3, EOM
   Marcus Kettner         : VPT2
   Christian Kollmar      : KDIIS, OOCD, Brueckner-CCSD(T), CCSD density, CASPT2, CASPT2-K
   Simone Kossmann        : Meta GGA functionals, TD-DFT gradient, OOMP2, MP2 Hessian
   Martin Krupicka        : Initial AUTO-CI
   Lucas Lang             : DCDCAS
   Marvin Lechner         : AUTO-CI (C++ implementation), FIC-MRCC
   Dagmar Lenk            : GEPOL surface, SMD
   Dimitrios Liakos       : Extrapolation schemes; Compound Job, initial MDCI parallelization
   Dimitrios Manganas     : Further ROCIS development; embedding schemes
   Dimitrios Pantazis     : SARC Basis sets
   Anastasios Papadopoulos: AUTO-CI, single reference methods and gradients
   Taras Petrenko         : DFT Hessian,TD-DFT gradient, ASA, ECA, R-Raman, ABS, FL, XAS/XES, NRVS
   Peter Pinski           : DLPNO-MP2, DLPNO-MP2 Gradient
   Christoph Reimann      : Effective Core Potentials
   Marius Retegan         : Local ZFS, SOC
   Christoph Riplinger    : Optimizer, TS searches, QM/MM, DLPNO-CCSD(T), (RO)-DLPNO pert. Triples
   Tobias Risthaus        : Range-separated hybrids, TD-DFT gradient, RPA, STAB
   Michael Roemelt        : Original ROCIS implementation
   Masaaki Saitow         : Open-shell DLPNO-CCSD energy and density
   Barbara Sandhoefer     : DKH picture change effects
   Avijit Sen             : IP-ROCIS
   Kantharuban Sivalingam : CASSCF convergence, NEVPT2, FIC-MRCI
   Bernardo de Souza      : ESD, SOC TD-DFT
   Georgi Stoychev        : AutoAux, RI-MP2 NMR, DLPNO-MP2 response
   Willem Van den Heuvel  : Paramagnetic NMR
   Boris Wezisla          : Elementary symmetry handling
   Frank Wennmohs         : Technical directorship


 We gratefully acknowledge several colleagues who have allowed us to
 interface, adapt or use parts of their codes:
   Stefan Grimme, W. Hujo, H. Kruse, P. Pracht,  : VdW corrections, initial TS optimization,
                  C. Bannwarth, S. Ehlert          DFT functionals, gCP, sTDA/sTD-DF
   Ed Valeev, F. Pavosevic, A. Kumar             : LibInt (2-el integral package), F12 methods
   Garnet Chan, S. Sharma, J. Yang, R. Olivares  : DMRG
   Ulf Ekstrom                                   : XCFun DFT Library
   Mihaly Kallay                                 : mrcc  (arbitrary order and MRCC methods)
   Jiri Pittner, Ondrej Demel                    : Mk-CCSD
   Frank Weinhold                                : gennbo (NPA and NBO analysis)
   Christopher J. Cramer and Donald G. Truhlar   : smd solvation model
   Lars Goerigk                                  : TD-DFT with DH, B97 family of functionals
   V. Asgeirsson, H. Jonsson                     : NEB implementation
   FAccTs GmbH                                   : IRC, NEB, NEB-TS, DLPNO-Multilevel, CI-OPT
                                                   MM, QMMM, 2- and 3-layer-ONIOM, Crystal-QMMM,
                                                   LR-CPCM, SF, NACMEs, symmetry and pop. for TD-DFT,
                                                   nearIR, NL-DFT gradient (VV10), updates on ESD,
                                                   ML-optimized integration grids
   S Lehtola, MJT Oliveira, MAL Marques          : LibXC Library
   Liviu Ungur et al                             : ANISO software


 Your calculation uses the libint2 library for the computation of 2-el integrals
 For citations please refer to: http://libint.valeyev.net

 Your ORCA version has been built with support for libXC version: 5.1.0
 For citations please refer to: https://tddft.org/programs/libxc/

 This ORCA versions uses:
   CBLAS   interface :  Fast vector & matrix operations
   LAPACKE interface :  Fast linear algebra routines
   SCALAPACK package :  Parallel linear algebra routines
   Shared memory     :  Shared parallel matrices
   BLAS/LAPACK       :  OpenBLAS 0.3.15  USE64BITINT DYNAMIC_ARCH NO_AFFINITY SkylakeX SINGLE_THREADED
        Core in use  :  SkylakeX
   Copyright (c) 2011-2014, The OpenBLAS Project




***************************************
The coordinates will be read from file: reactants.xyz
***************************************


Your calculation utilizes the SMD solvation module
Please cite in your paper:
A.V. Marenich, C.J. Cramer, D.G. Truhlar J. Phys. Chem. B, 113, (2009), 6378 

XCFun DFT library Copyright 2009-2010 Ulf Ekstrom and contributors.
See http://admol.org/xcfun for more information.
This is free software; see the source code for copying conditions.
There is ABSOLUTELY NO WARRANTY; not even for MERCHANTABILITY or FITNESS FOR A PARTICULAR PURPOSE.
For details see the documentation.
Scientific users of this library should cite U. Ekstrom, L. Visscher, R. Bast, A. J. Thorvaldsen and K. Ruud;
J.Chem.Theor.Comp. 2010, DOI: 10.1021/ct100117s
XCFun Version 0.99 

================================================================================

----- Orbital basis set information -----
Your calculation utilizes the basis: 6-311++G**
   H, Li - Ne  : R. Krishnan, J. S. Binkley, R. Seeger and J. A. Pople, J. Chem. Phys. 72, 650 (1980).
   Na - Ar     : A. D. McLean and G. S. Chandler J. Chem. Phys. 72, 5639, (1980).
   K  - Ca     : J.-P. Blaudeau, M. P. McGrath, L. A. Curtiss and L. Radom, J. Chem. Phys. 107, 5016 (1997).
   Ga - Kr     : L. A. Curtiss, M. P. McGrath, J.-P. Blandeau, N. E. Davis, R. C. Binning and L. Radom, J. Chem. Phys. 103, 6104 (1995).
   Pol./Diff.
   H, Li - Cl  : T. Clark, J. Chandrasekhar and P. v. R. Schleyer, J. Comp. Chem. 4, 294 (1983).
   H - Ne      : M. J. Frisch, J. A. Pople and J. S. Binkley, J. Chem. Phys. 80, 3265 (1984).

----- AuxJ basis set information -----
Your calculation utilizes the auxiliary basis: def2/J
   F. Weigend, Phys. Chem. Chem. Phys. 8, 1057 (2006).

================================================================================
                                        WARNINGS
                       Please study these warnings very carefully!
================================================================================


WARNING: Geometry Optimization
  ===> : Switching off AutoStart
         For restart on a previous wavefunction, please use MOREAD

INFO   : the flag for use of the SHARK integral package has been found!

================================================================================
                                       INPUT FILE
================================================================================
NAME = structure_opt.inp
|  1> !wb97x 6-311++G** OPT CPCM(WATER)
|  2> %maxcore  3500
|  3> %pal
|  4> nprocs 24
|  5> end
|  6> %cpcm
|  7> smd true
|  8> SMDsolvent "water"
|  9> end
| 10> %geom
| 11> ConstrainFragments {1} end
| 12> ConstrainFragments {4} end
| 13> ConnectFragments
| 14> { 1 2 C 5 7 }
| 15> { 1 2 C 0 9 }
| 16> { 2 3 C 13 5 }
| 17> { 3 4 C 13 17 }
| 18> end
| 19> end
| 20> * XYZfile -1 1 reactants.xyz
| 21> %geom
| 22> Fragments
| 23> 1 {0:5} end
| 24> 2 {6:12} end
| 25> 3 {13:16} end
| 26> 4 {17} end
| 27> end
| 28> end
| 29> 
| 30>                          ****END OF INPUT****
================================================================================

                       *****************************
                       * Geometry Optimization Run *
                       *****************************

Geometry optimization settings:
Update method            Update   .... BFGS
Choice of coordinates    CoordSys .... Z-matrix Internals
Initial Hessian          InHess   .... Almoef's Model

Convergence Tolerances:
Energy Change            TolE     ....  5.0000e-06 Eh
Max. Gradient            TolMAXG  ....  3.0000e-04 Eh/bohr
RMS Gradient             TolRMSG  ....  1.0000e-04 Eh/bohr
Max. Displacement        TolMAXD  ....  4.0000e-03 bohr
RMS Displacement         TolRMSD  ....  2.0000e-03 bohr
Strict Convergence                ....  False
------------------------------------------------------------------------------
                        ORCA OPTIMIZATION COORDINATE SETUP
------------------------------------------------------------------------------

The optimization will be done in new redundant internal coordinates
Making redundant internal coordinates   ...  (new redundants) done
Evaluating the initial hessian          ...  (Almloef) done
Evaluating the coordinates              ...  done
Calculating the B-matrix                .... done
Calculating the G-matrix                .... done
Diagonalizing the G-matrix              .... done
Imposing constraints:
 Iter   0:  RMS(Cart)=    0.0000000000 RMS(Int)=    0.0000000000
CONVERGED
Small eigenvalue found = 1.518e-02
Small eigenvalue found = 2.531e-02
The first mode is                       ....   77
The number of degrees of freedom        ....   48
Storing new coordinates                 .... done

    -----------------------------------------------------------------
                    Redundant Internal Coordinates


    -----------------------------------------------------------------
         Definition                    Initial Value    Approx d2E/dq
    -----------------------------------------------------------------
      1. B(N   1,C   0)                  1.3611         0.622347   
      2. B(C   2,N   1)                  1.3582         0.628875   
      3. B(C   3,C   2)                  1.3949         0.613658   
      4. B(C   4,C   3)                  1.3934         0.616971   
      5. B(C   5,C   0)                  1.4122         0.575774   
      6. B(C   5,C   4)                  1.4061         0.588917   
      7. B(O   7,C   5)                  2.3435         0.016853 C 
      8. B(O   7,N   6)                  1.2480         0.844503   
      9. B(O   8,N   6)                  1.3769         0.525866   
     10. B(F   9,C   0)                  1.3500         0.602260 C 
     11. B(F   9,N   6)                  2.8678         0.002044   
     12. B(F   9,O   7)                  2.5821         0.005837   
     13. B(H  11,H  10)                  2.4818         0.000415   
     14. B(H  12,O   8)                  2.5152         0.001717   
     15. B(H  12,H  11)                  2.4663         0.000439   
     16. B(H  12,N   6)                  2.7029         0.000861   
     17. B(C  13,N   6)                  8.4138         0.000000 C 
     18. B(H  14,C  13)                  1.0930         0.356095   
     19. B(H  15,C  13)                  1.0933         0.355711   
     20. B(H  16,C  13)                  1.0935         0.355477   
     21. B(S  17,C  13)                  1.8031         0.369292 C 
     22. A(N   1,C   0,C   5)          120.1571         0.425830   
     23. A(C   5,C   0,F   9)          121.1725         0.421471 C 
     24. A(N   1,C   0,F   9)          118.6704         0.424592 C 
     25. A(C   0,N   1,C   2)          121.9524         0.429796   
     26. A(N   1,C   2,C   3)          120.0262         0.431531   
     27. A(C   2,C   3,C   4)          119.3498         0.432882   
     28. A(C   3,C   4,C   5)          120.4718         0.429694   
     29. A(C   0,C   5,C   4)          118.0425         0.424407   
     30. A(C   4,C   5,O   7)          147.4261         0.238582 C 
     31. A(C   0,C   5,O   7)           94.5313         0.237820 C 
     32. A(O   7,N   6,F   9)           64.2090         0.186619   
     33. A(F   9,N   6,C  13)           85.4227         0.089261 C 
     34. A(O   7,N   6,C  13)           96.2092         0.090026 C 
     35. A(H  12,N   6,C  13)           83.0202         0.089188 C 
     36. A(O   7,N   6,O   8)          118.5014         0.433822   
     37. A(O   8,N   6,C  13)           94.1469         0.089921 C 
     38. A(F   9,N   6,H  12)          110.0144         0.106848   
     39. A(O   7,N   6,H  12)          174.2234         0.159181   
     40. A(O   8,N   6,H  12)           67.2752         0.152046   
     41. A(N   6,O   7,F   9)           89.9947         0.212791   
     42. A(C   5,O   7,N   6)           31.7456         0.248611 C 
     43. A(C   5,O   7,F   9)           58.2491         0.140475 C 
     44. A(N   6,O   8,H  12)           82.3972         0.162696   
     45. A(N   6,F   9,O   7)           25.7962         0.120482   
     46. A(C   0,F   9,O   7)           86.0471         0.203997 C 
     47. A(C   0,F   9,N   6)           60.2509         0.179684 C 
     48. A(H  10,H  11,H  12)          119.7063         0.095112   
     49. A(N   6,H  12,O   8)           30.3275         0.103999   
     50. A(N   6,H  12,H  11)          126.7169         0.097913   
     51. A(O   8,H  12,H  11)          157.0445         0.099419   
     52. A(H  15,C  13,H  16)          109.0057         0.289692   
     53. A(N   6,C  13,H  14)          126.8400         0.089742 C 
     54. A(H  16,C  13,S  17)          109.8919         0.339449 C 
     55. A(N   6,C  13,H  16)          109.5389         0.089742 C 
     56. A(H  14,C  13,S  17)          109.9559         0.339548 C 
     57. A(H  14,C  13,H  15)          109.0831         0.289771   
     58. A(H  15,C  13,S  17)          109.9291         0.339486 C 
     59. A(N   6,C  13,H  15)           91.2623         0.089742 C 
     60. A(H  14,C  13,H  16)          108.9502         0.289741   
     61. A(N   6,C  13,S  17)           20.7746         0.089926   
     62. D(C   2,N   1,C   0,C   5)     -0.1041         0.028432   
     63. D(C   2,N   1,C   0,F   9)    179.9112         0.028432 C 
     64. D(C   3,C   2,N   1,C   0)      0.1066         0.025783   
     65. D(C   4,C   3,C   2,N   1)     -0.0956         0.020965   
     66. D(C   5,C   4,C   3,C   2)      0.0854         0.021202   
     67. D(C   4,C   5,C   0,N   1)      0.0896         0.022761   
     68. D(C   4,C   5,C   0,F   9)   -179.9260         0.022761 C 
     69. D(O   7,C   5,C   0,N   1)    179.9933         0.022761 C 
     70. D(O   7,C   5,C   0,F   9)     -0.0223         0.022761 C 
     71. D(C   0,C   5,C   4,C   3)     -0.0818         0.021656   
     72. D(O   7,C   5,C   4,C   3)   -179.9036         0.021656 C 
     73. D(N   6,O   7,C   5,C   0)   -179.9521         0.001517 C 
     74. D(N   6,O   7,C   5,C   4)     -0.1099         0.001517 C 
     75. D(F   9,O   7,C   5,C   0)      0.0117         0.001517 C 
     76. D(F   9,O   7,C   5,C   4)    179.8539         0.001517 C 
     77. D(F   9,O   7,N   6,H  12)      0.1568         0.085936   
     78. D(F   9,O   7,N   6,O   8)    179.9932         0.085936   
     79. D(C   5,O   7,N   6,O   8)   -179.9761         0.085936 C 
     80. D(C   5,O   7,N   6,H  12)      0.1876         0.085936 C 
     81. D(F   9,O   7,N   6,C  13)    -81.8520         0.085936 C 
     82. D(C   5,O   7,N   6,C  13)    -81.8212         0.085936   
     83. D(C   5,O   7,N   6,F   9)      0.0308         0.085936 C 
     84. D(H  12,O   8,N   6,O   7)   -179.9821         0.027866   
     85. D(H  12,O   8,N   6,C  13)     80.6503         0.027866 C 
     86. D(O   7,F   9,C   0,C   5)      0.0202         0.032536 C 
     87. D(C   0,F   9,N   6,O   7)   -179.9922         0.001500 C 
     88. D(O   7,F   9,N   6,H  12)   -179.9832         0.001500   
     89. D(N   6,F   9,C   0,N   1)   -179.9918         0.032536 C 
     90. D(O   7,F   9,N   6,C  13)     99.1602         0.001500 C 
     91. D(O   7,F   9,C   0,N   1)   -179.9952         0.032536 C 
     92. D(N   6,F   9,C   0,C   5)      0.0236         0.032536 C 
     93. D(C   0,F   9,N   6,H  12)      0.0246         0.001500 C 
     94. D(C   0,F   9,N   6,C  13)    -80.8320         0.001500   
     95. D(N   6,F   9,O   7,C   5)     -0.0190         0.001503 C 
     96. D(C   0,F   9,O   7,N   6)      0.0068         0.001503 C 
     97. D(C   0,F   9,O   7,C   5)     -0.0123         0.001503 C 
     98. D(O   7,F   9,O   8,H  12)   -179.9897         0.001500   
     99. D(C   0,F   9,O   8,H  12)      0.0232         0.001500 C 
    100. D(O   8,H  12,N   6,O   7)    179.8441         0.001501   
    101. D(N   6,H  12,H  11,H  10)      0.0466         0.001502   
    102. D(O   8,H  12,N   6,C  13)    -97.4847         0.001501 C 
    103. D(H  11,H  12,N   6,O   7)     -0.1748         0.001501   
    104. D(H  11,H  12,N   6,O   8)    179.9811         0.001501   
    105. D(H  11,H  12,N   6,F   9)     -0.0245         0.001501   
    106. D(H  11,H  12,N   6,C  13)     82.4965         0.001501 C 
    107. D(O   8,H  12,N   6,F   9)    179.9943         0.001501   
    108. D(H  11,H  12,O   8,N   6)     -0.0388         0.001502   
    109. D(O   8,H  12,H  11,H  10)      0.0710         0.001502   
    110. D(S  17,C  13,N   6,H  12)   -118.2351         0.001500   
    111. D(H  14,C  13,N   6,O   8)    135.8704         0.001500 C 
    112. D(H  14,C  13,N   6,H  12)   -157.6507         0.001500 C 
    113. D(H  16,C  13,N   6,H  12)    -23.5084         0.001500 C 
    114. D(H  15,C  13,N   6,O   7)    -98.5723         0.001500 C 
    115. D(H  15,C  13,N   6,O   8)     20.7121         0.001500 C 
    116. D(H  15,C  13,N   6,H  12)     87.1909         0.001500 C 
    117. D(H  15,C  13,N   6,F   9)   -161.9717         0.001500 C 
    118. D(H  16,C  13,N   6,O   7)    150.7284         0.001500 C 
    119. D(H  14,C  13,N   6,F   9)    -46.8134         0.001500 C 
    120. D(H  16,C  13,N   6,O   8)    -89.9873         0.001500 C 
    121. D(H  16,C  13,N   6,F   9)     87.3289         0.001500 C 
    122. D(S  17,C  13,N   6,O   7)     56.0017         0.001500   
    123. D(H  14,C  13,N   6,O   7)     16.5861         0.001500 C 
    124. D(S  17,C  13,N   6,O   8)    175.2860         0.001500   
    125. D(S  17,C  13,N   6,F   9)     -7.3978         0.001500   
    -----------------------------------------------------------------

Number of atoms                         .... 18
Number of degrees of freedom            .... 125

         *************************************************************
         *                GEOMETRY OPTIMIZATION CYCLE   1            *
         *************************************************************
---------------------------------
CARTESIAN COORDINATES (ANGSTROEM)
---------------------------------
  C      0.000000    0.000000    1.820000
  N      1.178000   -0.196000    2.473000
  C      1.255000   -0.207000    3.829000
  C      0.105000   -0.016000    4.595000
  C     -1.116000    0.187000    3.955000
  C     -1.192000    0.198000    2.551000
  N     -2.456000    0.409000    1.893000
  O     -2.541000    0.423000    0.648000
  O     -3.602000    0.600000    2.632000
  F      0.000000    0.000000    0.470000
  H      2.209000   -0.366000    4.313000
  H      0.163000   -0.026000    5.676000
  H     -2.005000    0.335000    4.557000
  C     -2.587000   -7.963000    2.720000
  H     -2.407000   -8.702000    1.935000
  H     -3.654000   -7.947000    2.958000
  H     -2.027000   -8.251000    3.614000
  S     -2.057000   -6.332000    2.163000

----------------------------
CARTESIAN COORDINATES (A.U.)
----------------------------
  NO LB      ZA    FRAG     MASS         X           Y           Z
   0 C     6.0000    1    12.011    0.000000    0.000000    3.439302
   1 N     7.0000    1    14.007    2.226097   -0.370386    4.673293
   2 C     6.0000    1    12.011    2.371606   -0.391173    7.235761
   3 C     6.0000    1    12.011    0.198421   -0.030236    8.683292
   4 C     6.0000    1    12.011   -2.108934    0.353379    7.473867
   5 C     6.0000    1    12.011   -2.252554    0.374166    4.820691
   6 N     7.0000    2    14.007   -4.641167    0.772898    3.577252
   7 O     8.0000    2    15.999   -4.801794    0.799354    1.224543
   8 O     8.0000    2    15.999   -6.806794    1.133836    4.973759
   9 F     9.0000    2    18.998    0.000000    0.000000    0.888171
  10 H     1.0000    2     1.008    4.174405   -0.691640    8.150389
  11 H     1.0000    2     1.008    0.308025   -0.049133   10.726086
  12 H     1.0000    2     1.008   -3.788901    0.633058    8.611482
  13 C     6.0000    3    12.011   -4.888722  -15.047889    5.140055
  14 H     1.0000    3     1.008   -4.548571  -16.444397    3.656620
  15 H     1.0000    3     1.008   -6.905059  -15.017654    5.589810
  16 H     1.0000    3     1.008   -3.830475  -15.592130    6.829470
  17 S    16.0000    4    32.060   -3.887167  -11.965746    4.087478

----------------------------------------------
CARTESIAN COORDINATES OF FRAGMENTS (ANGSTROEM)
----------------------------------------------

 FRAGMENT 1 
  C     0.000000    0.000000    1.820000
  N     1.178000   -0.196000    2.473000
  C     1.255000   -0.207000    3.829000
  C     0.105000   -0.016000    4.595000
  C    -1.116000    0.187000    3.955000
  C    -1.192000    0.198000    2.551000

 FRAGMENT 2 
  N    -2.456000    0.409000    1.893000
  O    -2.541000    0.423000    0.648000
  O    -3.602000    0.600000    2.632000
  F     0.000000    0.000000    0.470000
  H     2.209000   -0.366000    4.313000
  H     0.163000   -0.026000    5.676000
  H    -2.005000    0.335000    4.557000

 FRAGMENT 3 
  C    -2.587000   -7.963000    2.720000
  H    -2.407000   -8.702000    1.935000
  H    -3.654000   -7.947000    2.958000
  H    -2.027000   -8.251000    3.614000

 FRAGMENT 4 
  S    -2.057000   -6.332000    2.163000

--------------------------------
INTERNAL COORDINATES (ANGSTROEM)
--------------------------------
 C      0   0   0     0.000000000000     0.00000000     0.00000000
 N      1   0   0     1.361069065110     0.00000000     0.00000000
 C      2   1   0     1.358228993948   121.95243626     0.00000000
 C      3   2   1     1.394896770374   120.02620694     0.10655554
 C      4   3   2     1.393431017309   119.34983770   359.90435571
 C      5   4   3     1.406098502951   120.47178172     0.08537773
 N      6   5   4     1.440548853736   120.30882193   180.03842131
 O      7   6   5     1.247976762604   121.13704526   179.93147861
 O      7   6   5     1.376923382037   120.36156660   359.90709941
 F      1   2   3     1.350000000000   118.67037638   179.91115691
 H      3   2   1     1.081504969938   119.86701156   179.98746005
 H      4   3   2     1.082601034546   120.19197482   179.89186186
 H      5   4   3     1.083803026384   118.91636700   180.02085854
 C      6   5   4     8.281093345688    88.91234636    90.28538745
 H     14   6   5     1.093044372384   128.60084151   203.82978333
 H     14   6   5     1.093338465435    98.88307305    80.58675429
 H     14   6   5     1.093517260952   100.95088617   329.11946475
 S     14   6   5     1.803138929756    18.69561532   208.49710123

---------------------------
INTERNAL COORDINATES (A.U.)
---------------------------
 C      0   0   0     0.000000000000     0.00000000     0.00000000
 N      1   0   0     2.572047782411     0.00000000     0.00000000
 C      2   1   0     2.566680825712   121.95243626     0.00000000
 C      3   2   1     2.635972881098   120.02620694     0.10655554
 C      4   3   2     2.633203009226   119.34983770   359.90435571
 C      5   4   3     2.657141087893   120.47178172     0.08537773
 N      6   5   4     2.722242816095   120.30882193   180.03842131
 O      7   6   5     2.358334302820   121.13704526   179.93147861
 O      7   6   5     2.602008099442   120.36156660   359.90709941
 F      1   2   3     2.551130280794   118.67037638   179.91115691
 H      3   2   1     2.043748205657   119.86701156   179.98746005
 H      4   3   2     2.045819467592   120.19197482   179.89186186
 H      5   4   3     2.048090902982   118.91636700   180.02085854
 C      6   5   4    15.648998512788    88.91234636    90.28538745
 H     14   6   5     2.065554516029   128.60084151   203.82978333
 H     14   6   5     2.066110271354    98.88307305    80.58675429
 H     14   6   5     2.066448145915   100.95088617   329.11946475
 S     14   6   5     3.407438758650    18.69561532   208.49710123

---------------------
BASIS SET INFORMATION
---------------------
There are 6 groups of distinct atoms

 Group   1 Type C   : 12s6p1d contracted to 5s4p1d pattern {63111/3111/1}
 Group   2 Type N   : 12s6p1d contracted to 5s4p1d pattern {63111/3111/1}
 Group   3 Type O   : 12s6p1d contracted to 5s4p1d pattern {63111/3111/1}
 Group   4 Type F   : 12s6p1d contracted to 5s4p1d pattern {63111/3111/1}
 Group   5 Type H   : 6s1p contracted to 4s1p pattern {3111/1}
 Group   6 Type S   : 14s10p1d contracted to 7s6p1d pattern {6311111/421111/1}

Atom   0C    basis set group =>   1
Atom   1N    basis set group =>   2
Atom   2C    basis set group =>   1
Atom   3C    basis set group =>   1
Atom   4C    basis set group =>   1
Atom   5C    basis set group =>   1
Atom   6N    basis set group =>   2
Atom   7O    basis set group =>   3
Atom   8O    basis set group =>   3
Atom   9F    basis set group =>   4
Atom  10H    basis set group =>   5
Atom  11H    basis set group =>   5
Atom  12H    basis set group =>   5
Atom  13C    basis set group =>   1
Atom  14H    basis set group =>   5
Atom  15H    basis set group =>   5
Atom  16H    basis set group =>   5
Atom  17S    basis set group =>   6
---------------------------------
AUXILIARY/J BASIS SET INFORMATION
---------------------------------
There are 6 groups of distinct atoms

 Group   1 Type C   : 12s5p4d2f1g contracted to 6s4p3d1f1g pattern {711111/2111/211/2/1}
 Group   2 Type N   : 12s5p4d2f1g contracted to 6s4p3d1f1g pattern {711111/2111/211/2/1}
 Group   3 Type O   : 12s5p4d2f1g contracted to 6s4p3d1f1g pattern {711111/2111/211/2/1}
 Group   4 Type F   : 12s5p4d2f1g contracted to 6s4p3d1f1g pattern {711111/2111/211/2/1}
 Group   5 Type H   : 5s2p1d contracted to 3s1p1d pattern {311/2/1}
 Group   6 Type S   : 14s5p5d2f1g contracted to 8s4p3d1f1g pattern {71111111/2111/311/2/1}

Atom   0C    basis set group =>   1
Atom   1N    basis set group =>   2
Atom   2C    basis set group =>   1
Atom   3C    basis set group =>   1
Atom   4C    basis set group =>   1
Atom   5C    basis set group =>   1
Atom   6N    basis set group =>   2
Atom   7O    basis set group =>   3
Atom   8O    basis set group =>   3
Atom   9F    basis set group =>   4
Atom  10H    basis set group =>   5
Atom  11H    basis set group =>   5
Atom  12H    basis set group =>   5
Atom  13C    basis set group =>   1
Atom  14H    basis set group =>   5
Atom  15H    basis set group =>   5
Atom  16H    basis set group =>   5
Atom  17S    basis set group =>   6


           ************************************************************
           *        Program running with 24 parallel MPI-processes    *
           *              working on a common directory               *
           ************************************************************
------------------------------------------------------------------------------
                           ORCA GTO INTEGRAL CALCULATION
                           -- RI-GTO INTEGRALS CHOSEN --
------------------------------------------------------------------------------
------------------------------------------------------------------------------
                   ___                                                        
                  /   \      - P O W E R E D   B Y -                         
                 /     \                                                     
                 |  |  |   _    _      __       _____    __    __             
                 |  |  |  | |  | |    /  \     |  _  \  |  |  /  |          
                  \  \/   | |  | |   /    \    | | | |  |  | /  /          
                 / \  \   | |__| |  /  /\  \   | |_| |  |  |/  /          
                |  |  |   |  __  | /  /__\  \  |    /   |      \           
                |  |  |   | |  | | |   __   |  |    \   |  |\   \          
                \     /   | |  | | |  |  |  |  | |\  \  |  | \   \       
                 \___/    |_|  |_| |__|  |__|  |_| \__\ |__|  \__/        
                                                                              
                      - O R C A' S   B I G   F R I E N D -                    
                                      &                                       
                       - I N T E G R A L  F E E D E R -                       
                                                                              
 v1 FN, 2020, v2 2021                                                         
------------------------------------------------------------------------------


Reading SHARK input file structure_opt.SHARKINP.tmp ... ok
----------------------
SHARK INTEGRAL PACKAGE
----------------------

Number of atoms                             ...     18
Number of basis functions                   ...    314
Number of shells                            ...    154
Maximum angular momentum                    ...      2
Integral batch strategy                     ... SHARK/LIBINT Hybrid
RI-J (if used) integral strategy            ... SPLIT-RIJ (Revised 2003 algorithm where possible)
Printlevel                                  ...      1
Contraction scheme used                     ... SEGMENTED contraction
Coulomb Range Separation                    ... NOT USED
Exchange Range Separation                   ... Long Range
   Mu parameter                             ...  0.300000
   Scaling (regular/separated)              ...  0.157706  0.842294
Finite Nucleus Model                        ... NOT USED
Auxiliary Coulomb fitting basis             ... AVAILABLE
   # of basis functions in Aux-J            ...    656
   # of shells in Aux-J                     ...    212
   Maximum angular momentum in Aux-J        ...      4
Auxiliary J/K fitting basis                 ... NOT available
Auxiliary Correlation fitting basis         ... NOT available
Auxiliary 'external' fitting basis          ... NOT available
Integral threshold                          ...     2.500000e-11
Primitive cut-off                           ...     2.500000e-12
Primitive pair pre-selection threshold      ...     2.500000e-12

Calculating pre-screening integrals         ... done (  0.0 sec) Dimension = 154
Organizing shell pair data                  ... done (  0.1 sec)
Shell pair information
Total number of shell pairs                 ...     11935
Shell pairs after pre-screening             ...      8934
Total number of primitive shell pairs       ...     38500
Primitive shell pairs kept                  ...     20370
          la=0 lb=0:   2742 shell pairs
          la=1 lb=0:   3680 shell pairs
          la=1 lb=1:   1262 shell pairs
          la=2 lb=0:    712 shell pairs
          la=2 lb=1:    486 shell pairs
          la=2 lb=2:     52 shell pairs

Calculating one electron integrals          ... done (  0.0 sec)
Calculating RI/J V-Matrix + Cholesky decomp.... done (  0.1 sec)
Calculating Nuclear repulsion               ... done (  0.0 sec) ENN=    678.156430051214 Eh

SHARK setup successfully completed in   0.7 seconds

Maximum memory used throughout the entire GTOINT-calculation: 17.6 MB


           ************************************************************
           *        Program running with 24 parallel MPI-processes    *
           *              working on a common directory               *
           ************************************************************
-------------------------------------------------------------------------------
                                 ORCA SCF
-------------------------------------------------------------------------------

------------
SCF SETTINGS
------------
Hamiltonian:
 Density Functional     Method          .... DFT(GTOs)
 Exchange Functional    Exchange        .... WB97X
 Correlation Functional Correlation     .... WB97X
 Gradients option       PostSCFGGA      .... off
 Hybrid DFT is turned on
   Fraction HF Exchange ScalHFX         ....  0.157706
   Scaling of DF-GGA-X  ScalDFX         ....  0.000000
   Scaling of DF-GGA-C  ScalDFC         ....  1.000000
   Scaling of DF-LDA-C  ScalLDAC        ....  1.000000
   Perturbative correction              ....  0.000000
   Density functional embedding theory  .... OFF
 Long-range corrected/Screened/Range-Separated Hybrid DFT is turned on
   Amount of maximum screened exact exchange              ....  0.842294
   Range separation parameter mu (erf(mu*r12)/r12)        ....  0.300000
 RI-approximation to the Coulomb term is turned on
   Number of AuxJ basis functions       .... 656
   RIJ-COSX (HFX calculated with COS-X)).... on


General Settings:
 Integral files         IntName         .... structure_opt
 Hartree-Fock type      HFTyp           .... RHF
 Total Charge           Charge          ....   -1
 Multiplicity           Mult            ....    1
 Number of Electrons    NEL             ....   98
 Basis Dimension        Dim             ....  314
 Nuclear Repulsion      ENuc            ....    678.1564300512 Eh

Convergence Acceleration:
 DIIS                   CNVDIIS         .... on
   Start iteration      DIISMaxIt       ....    12
   Startup error        DIISStart       ....  0.200000
   # of expansion vecs  DIISMaxEq       ....     5
   Bias factor          DIISBfac        ....   1.050
   Max. coefficient     DIISMaxC        ....  10.000
 Trust-Rad. Augm. Hess. CNVTRAH         .... auto
   Auto Start mean grad. ratio tolernc. ....  1.125000
   Auto Start start iteration           ....    20
   Auto Start num. interpolation iter.  ....    10
   Max. Number of Micro iterations      ....    16
   Max. Number of Macro iterations      .... Maxiter - #DIIS iter
   Number of Davidson start vectors     ....     2
   Converg. threshold I  (grad. norm)   ....   1.000e-05
   Converg. threshold II (energy diff.) ....   1.000e-08
   Grad. Scal. Fac. for Micro threshold ....   0.100
   Minimum threshold for Micro iter.    ....   0.010
   NR start threshold (gradient norm)   ....   0.001
   Initial trust radius                 ....   0.400
   Minimum AH scaling param. (alpha)    ....   1.000
   Maximum AH scaling param. (alpha)    .... 1000.000
   Orbital update algorithm             .... Taylor
   White noise on init. David. guess    .... on
   Maximum white noise                  ....   0.010
   Quad. conv. algorithm                .... NR
 SOSCF                  CNVSOSCF        .... on
   Start iteration      SOSCFMaxIt      ....   150
   Startup grad/error   SOSCFStart      ....  0.003300
 Level Shifting         CNVShift        .... on
   Level shift para.    LevelShift      ....    0.2500
   Turn off err/grad.   ShiftErr        ....    0.0010
 Zerner damping         CNVZerner       .... off
 Static damping         CNVDamp         .... on
   Fraction old density DampFac         ....    0.7000
   Max. Damping (<1)    DampMax         ....    0.9800
   Min. Damping (>=0)   DampMin         ....    0.0000
   Turn off err/grad.   DampErr         ....    0.1000
 Fernandez-Rico         CNVRico         .... off

SCF Procedure:
 Maximum # iterations   MaxIter         ....   125
 SCF integral mode      SCFMode         .... Direct
   Integral package                     .... SHARK and LIBINT hybrid scheme
 Reset frequency        DirectResetFreq ....    20
 Integral Threshold     Thresh          ....  2.500e-11 Eh
 Primitive CutOff       TCut            ....  2.500e-12 Eh

Convergence Tolerance:
 Convergence Check Mode ConvCheckMode   .... Total+1el-Energy
 Convergence forced     ConvForced      .... 0
 Energy Change          TolE            ....  1.000e-08 Eh
 1-El. energy change                    ....  1.000e-05 Eh
 Orbital Gradient       TolG            ....  1.000e-05
 Orbital Rotation angle TolX            ....  1.000e-05
 DIIS Error             TolErr          ....  5.000e-07


Diagonalization of the overlap matrix:
Smallest eigenvalue                        ... 4.371e-06
Time for diagonalization                   ...    0.015 sec
Threshold for overlap eigenvalues          ... 1.000e-08
Number of eigenvalues below threshold      ... 0
Time for construction of square roots      ...    0.030 sec
Total time needed                          ...    0.047 sec

Time for model grid setup =    0.421 sec

------------------------------
INITIAL GUESS: MODEL POTENTIAL
------------------------------
Loading Hartree-Fock densities                     ... done
Calculating cut-offs                               ... done
Initializing the effective Hamiltonian             ... done
Setting up the integral package (SHARK)            ... done
Starting the Coulomb interaction                   ... done (   0.1 sec)
Reading the grid                                   ... done
Mapping shells                                     ... done
Starting the XC term evaluation                    ... done (   0.0 sec)
  promolecular density results
     # of electrons  =     96.996068356
     EX              =    -96.552530323
     EC              =     -3.327216582
     EX+EC           =    -99.879746905
Transforming the Hamiltonian                       ... done (   0.0 sec)
Diagonalizing the Hamiltonian                      ... done (   0.0 sec)
Back transforming the eigenvectors                 ... done (   0.0 sec)
Now organizing SCF variables                       ... done
                      ------------------
                      INITIAL GUESS DONE (   0.6 sec)
                      ------------------
-------------------
DFT GRID GENERATION
-------------------

General Integration Accuracy     IntAcc      ... 4.388
Radial Grid Type                 RadialGrid  ... OptM3 with GC (2021)
Angular Grid (max. ang.)         AngularGrid ... 4 (Lebedev-302)
Angular grid pruning method      GridPruning ... 4 (adaptive)
Weight generation scheme         WeightScheme... Becke
Basis function cutoff            BFCut       ... 1.0000e-11
Integration weight cutoff        WCut        ... 1.0000e-14
Angular grids for H and He will be reduced by one unit
Partially contracted basis set               ... off
Rotationally invariant grid construction     ... off

Total number of grid points                  ...    98135
Total number of batches                      ...     1544
Average number of points per batch           ...       63
Average number of grid points per atom       ...     5452
Time for grid setup =    0.649 sec

--------------------
COSX GRID GENERATION
--------------------

GRIDX 1
-------
General Integration Accuracy     IntAcc      ... 3.816
Radial Grid Type                 RadialGrid  ... OptM3 with GC (2021)
Angular Grid (max. ang.)         AngularGrid ... 1 (Lebedev-50)
Angular grid pruning method      GridPruning ... 4 (adaptive)
Weight generation scheme         WeightScheme... Becke
Basis function cutoff            BFCut       ... 1.0000e-11
Integration weight cutoff        WCut        ... 1.0000e-14
Angular grids for H and He will be reduced by one unit
Partially contracted basis set               ... on
Rotationally invariant grid construction     ... off

Total number of grid points                  ...    12261
Total number of batches                      ...      203
Average number of points per batch           ...       60
Average number of grid points per atom       ...      681
UseSFitting                                  ... on

GRIDX 2
-------
General Integration Accuracy     IntAcc      ... 4.020
Radial Grid Type                 RadialGrid  ... OptM3 with GC (2021)
Angular Grid (max. ang.)         AngularGrid ... 2 (Lebedev-110)
Angular grid pruning method      GridPruning ... 4 (adaptive)
Weight generation scheme         WeightScheme... Becke
Basis function cutoff            BFCut       ... 1.0000e-11
Integration weight cutoff        WCut        ... 1.0000e-14
Angular grids for H and He will be reduced by one unit
Partially contracted basis set               ... on
Rotationally invariant grid construction     ... off

Total number of grid points                  ...    31087
Total number of batches                      ...      496
Average number of points per batch           ...       62
Average number of grid points per atom       ...     1727
UseSFitting                                  ... on

GRIDX 3
-------
General Integration Accuracy     IntAcc      ... 4.338
Radial Grid Type                 RadialGrid  ... OptM3 with GC (2021)
Angular Grid (max. ang.)         AngularGrid ... 3 (Lebedev-194)
Angular grid pruning method      GridPruning ... 4 (adaptive)
Weight generation scheme         WeightScheme... Becke
Basis function cutoff            BFCut       ... 1.0000e-11
Integration weight cutoff        WCut        ... 1.0000e-14
Angular grids for H and He will be reduced by one unit
Partially contracted basis set               ... on
Rotationally invariant grid construction     ... off

Total number of grid points                  ...    69113
Total number of batches                      ...     1086
Average number of points per batch           ...       63
Average number of grid points per atom       ...     3840
UseSFitting                                  ... on

Time for X-Grid setup             =    1.110 sec


--------------------
CPCM SOLVATION MODEL
--------------------
CPCM parameters:
  Epsilon                                         ...      78.3550
  Refrac                                          ...       1.3328
  Rsolv                                           ...       1.3000
  Surface type                                    ... GAUSSIAN VDW
  Epsilon function type                           ...         CPCM
Solvent:                                     ... WATER
SMD-CDS solvent descriptors:
  Soln                                       ...    1.3328
  Soln25                                     ...    1.3323
  Sola                                       ...    0.0000
  Solb                                       ...    0.0000
  Solg                                       ...    0.0000
  Solc                                       ...    0.0000
  Solh                                       ...    0.0000
Radii:
 Radius for C  used is    3.4960 Bohr (=   1.8500 Ang.)
 Radius for N  used is    3.5716 Bohr (=   1.8900 Ang.)
 Radius for O  used is    2.8724 Bohr (=   1.5200 Ang.)
 Radius for F  used is    3.2692 Bohr (=   1.7300 Ang.)
 Radius for H  used is    2.2677 Bohr (=   1.2000 Ang.)
 Radius for S  used is    4.7054 Bohr (=   2.4900 Ang.)
Calculating surface                               ...        done! (  0.0s)
GEPOL surface points                              ...         1151
GEPOL Volume                                      ...    1365.1305
GEPOL Surface-area                                ...     848.9446
Calculating surface distance matrix               ...        done! (  0.0s)
Performing Cholesky decomposition & store         ...        done! (  0.1s)
Overall time for CPCM initialization              ...                 0.1s
--------------
SCF ITERATIONS
--------------
ITER       Energy         Delta-E        Max-DP      RMS-DP      [F,P]     Damp
               ***  Starting incremental Fock matrix formation  ***
  0   -989.8660640395   0.000000000000 0.33491270  0.00325363  0.2373531 0.7000
  1   -990.0282846976  -0.162220658043 0.29357321  0.00261665  0.1155836 0.7000
                               ***Turning on DIIS***
  2   -990.1007254358  -0.072440738217 1.67023505  0.00957995  0.0599750 0.0000
  3   -990.2247743784  -0.124048942601 0.74280472  0.00401906  0.0550030 0.0000
  4   -990.2439188450  -0.019144466615 0.26224987  0.00141863  0.0124244 0.0000
  5   -990.2450925147  -0.001173669669 0.13245405  0.00074534  0.0061427 0.0000
                      *** Initiating the SOSCF procedure ***
                           *** Shutting down DIIS ***
                      *** Re-Reading the Fockian *** 
                      *** Removing any level shift *** 
ITER      Energy       Delta-E        Grad      Rot      Max-DP    RMS-DP
  6   -990.24532298  -0.0002304666  0.001497  0.001497  0.039745  0.000247
               *** Restarting incremental Fock matrix formation ***
  7   -990.24539494  -0.0000719572  0.000980  0.002404  0.017876  0.000202
  8   -990.24543413  -0.0000391963  0.000343  0.002521  0.014909  0.000187
  9   -990.24544026  -0.0000061296  0.000682  0.000716  0.008583  0.000095
 10   -990.24544704  -0.0000067760  0.000112  0.000186  0.002821  0.000030
 11   -990.24544710  -0.0000000577  0.000092  0.000126  0.004650  0.000024
 12   -990.24544746  -0.0000003627  0.000015  0.000040  0.004086  0.000025
 13   -990.24544747  -0.0000000066  0.000007  0.000031  0.006032  0.000043
 14   -990.24544747  -0.0000000034  0.000005  0.000013  0.005703  0.000033
                  ***Gradient check signals convergence***
              ***Rediagonalizing the Fockian in SOSCF/NRSCF***

               *****************************************************
               *                     SUCCESS                       *
               *           SCF CONVERGED AFTER  15 CYCLES          *
               *****************************************************

Old exchange energy                            =    -28.432829228 Eh
New exchange energy                            =    -28.432830841 Eh
Exchange energy change after final integration =     -0.000001613 Eh
Total energy after final integration           =   -990.245449084 Eh
Final COS-X integration done in                =     3.606 sec

SMD CDS free energy correction energy :                 5.87363     Kcal/mol
Total Energy after SMD CDS correction =              -990.236088863 Eh

----------------
TOTAL SCF ENERGY
----------------

Total Energy       :         -990.23608886 Eh          -26945.69387 eV

Components:
Nuclear Repulsion  :          678.15643005 Eh           18453.57462 eV
Electronic Energy  :        -1668.39251891 Eh          -45399.26849 eV
One Electron Energy:        -2715.73138063 Eh          -73898.80781 eV
Two Electron Energy:         1047.33886172 Eh           28499.53932 eV
Max COSX asymmetry :            0.00000158 Eh               0.00004 eV
CPCM Dielectric    :           -0.12967118 Eh              -3.52853 eV
SMD CDS (Gcds)     :            0.00936022 Eh               0.25470 eV

Virial components:
Potential Energy   :        -1977.46951087 Eh          -53809.68102 eV
Kinetic Energy     :          987.23342201 Eh           26863.98715 eV
Virial Ratio       :            2.00304150


DFT components:
N(Alpha)           :       48.999897408792 electrons
N(Beta)            :       48.999897408792 electrons
N(Total)           :       97.999794817584 electrons
E(XC)              :      -73.338423839025 Eh       
DFET-embed. en.    :        0.000000000000 Eh       
CPCM Solvation Model Properties:
Surface-charge          :            0.94611707
Charge-correction       :           -0.00553405 Eh              -0.15059 eV
Free-energy (cav+disp)  :            0.00936022 Eh               0.25470 eV

---------------
SCF CONVERGENCE
---------------

  Last Energy change         ...   -1.2960e-10  Tolerance :   1.0000e-08
  Last MAX-Density change    ...    1.7764e-15  Tolerance :   1.0000e-07
  Last RMS-Density change    ...    3.6050e-17  Tolerance :   5.0000e-09
  Last Orbital Gradient      ...    1.9371e-06  Tolerance :   1.0000e-05
  Last Orbital Rotation      ...    1.7998e-06  Tolerance :   1.0000e-05

             **** THE GBW FILE WAS UPDATED (structure_opt.gbw) ****
             **** DENSITY structure_opt.scfp WAS UPDATED ****
             **** ENERGY FILE WAS UPDATED (structure_opt.en.tmp) ****
             **** THE GBW FILE WAS UPDATED (structure_opt.gbw) ****
             **** DENSITY structure_opt.scfp WAS UPDATED ****
----------------
ORBITAL ENERGIES
----------------

  NO   OCC          E(Eh)            E(eV) 
   0   2.0000     -88.720169     -2414.1985 
   1   2.0000     -24.793312      -674.6603 
   2   2.0000     -19.275597      -524.5156 
   3   2.0000     -19.243910      -523.6534 
   4   2.0000     -14.669815      -399.1860 
   5   2.0000     -14.435522      -392.8105 
   6   2.0000     -10.437665      -284.0233 
   7   2.0000     -10.364103      -282.0216 
   8   2.0000     -10.338168      -281.3159 
   9   2.0000     -10.321126      -280.8521 
  10   2.0000     -10.290448      -280.0173 
  11   2.0000     -10.235919      -278.5335 
  12   2.0000      -7.916052      -215.4067 
  13   2.0000      -5.879198      -159.9811 
  14   2.0000      -5.871807      -159.7800 
  15   2.0000      -5.871804      -159.7799 
  16   2.0000      -1.396347       -37.9965 
  17   2.0000      -1.348213       -36.6868 
  18   2.0000      -1.151471       -31.3331 
  19   2.0000      -1.109233       -30.1838 
  20   2.0000      -1.008376       -27.4393 
  21   2.0000      -0.943363       -25.6702 
  22   2.0000      -0.873971       -23.7820 
  23   2.0000      -0.836280       -22.7563 
  24   2.0000      -0.796625       -21.6773 
  25   2.0000      -0.769163       -20.9300 
  26   2.0000      -0.705981       -19.2107 
  27   2.0000      -0.686541       -18.6817 
  28   2.0000      -0.669358       -18.2142 
  29   2.0000      -0.665190       -18.1007 
  30   2.0000      -0.661709       -18.0060 
  31   2.0000      -0.633253       -17.2317 
  32   2.0000      -0.620347       -16.8805 
  33   2.0000      -0.615213       -16.7408 
  34   2.0000      -0.563788       -15.3415 
  35   2.0000      -0.537071       -14.6144 
  36   2.0000      -0.527909       -14.3651 
  37   2.0000      -0.527887       -14.3645 
  38   2.0000      -0.494560       -13.4577 
  39   2.0000      -0.494285       -13.4502 
  40   2.0000      -0.456088       -12.4108 
  41   2.0000      -0.432473       -11.7682 
  42   2.0000      -0.421643       -11.4735 
  43   2.0000      -0.416409       -11.3311 
  44   2.0000      -0.408013       -11.1026 
  45   2.0000      -0.390774       -10.6335 
  46   2.0000      -0.384887       -10.4733 
  47   2.0000      -0.259003        -7.0478 
  48   2.0000      -0.258970        -7.0469 
  49   0.0000      -0.064751        -1.7620 
  50   0.0000       0.022735         0.6186 
  51   0.0000       0.051434         1.3996 
  52   0.0000       0.055573         1.5122 
  53   0.0000       0.060168         1.6373 
  54   0.0000       0.067932         1.8485 
  55   0.0000       0.073001         1.9865 
  56   0.0000       0.087331         2.3764 
  57   0.0000       0.090399         2.4599 
  58   0.0000       0.091916         2.5012 
  59   0.0000       0.100185         2.7262 
  60   0.0000       0.112844         3.0706 
  61   0.0000       0.118407         3.2220 
  62   0.0000       0.124834         3.3969 
  63   0.0000       0.129190         3.5154 
  64   0.0000       0.135940         3.6991 
  65   0.0000       0.142695         3.8829 
  66   0.0000       0.154663         4.2086 
  67   0.0000       0.160669         4.3720 
  68   0.0000       0.164260         4.4697 
  69   0.0000       0.167812         4.5664 
  70   0.0000       0.168722         4.5912 
  71   0.0000       0.174475         4.7477 
  72   0.0000       0.177832         4.8391 
  73   0.0000       0.180159         4.9024 
  74   0.0000       0.181030         4.9261 
  75   0.0000       0.183940         5.0053 
  76   0.0000       0.192772         5.2456 
  77   0.0000       0.194992         5.3060 
  78   0.0000       0.199691         5.4339 
  79   0.0000       0.203651         5.5416 
  80   0.0000       0.210825         5.7368 
  81   0.0000       0.219528         5.9737 
  82   0.0000       0.222129         6.0444 
  83   0.0000       0.227401         6.1879 
  84   0.0000       0.235004         6.3948 
  85   0.0000       0.238193         6.4816 
  86   0.0000       0.249557         6.7908 
  87   0.0000       0.258156         7.0248 
  88   0.0000       0.264173         7.1885 
  89   0.0000       0.270914         7.3719 
  90   0.0000       0.273556         7.4438 
  91   0.0000       0.278021         7.5653 
  92   0.0000       0.278798         7.5865 
  93   0.0000       0.282849         7.6967 
  94   0.0000       0.289326         7.8730 
  95   0.0000       0.296991         8.0815 
  96   0.0000       0.299530         8.1506 
  97   0.0000       0.315306         8.5799 
  98   0.0000       0.319063         8.6821 
  99   0.0000       0.327336         8.9073 
 100   0.0000       0.337399         9.1811 
 101   0.0000       0.339895         9.2490 
 102   0.0000       0.349951         9.5226 
 103   0.0000       0.353724         9.6253 
 104   0.0000       0.361991         9.8503 
 105   0.0000       0.365319         9.9408 
 106   0.0000       0.372038        10.1237 
 107   0.0000       0.376053        10.2329 
 108   0.0000       0.396189        10.7808 
 109   0.0000       0.404358        11.0031 
 110   0.0000       0.410236        11.1631 
 111   0.0000       0.418024        11.3750 
 112   0.0000       0.426764        11.6128 
 113   0.0000       0.435476        11.8499 
 114   0.0000       0.438015        11.9190 
 115   0.0000       0.452828        12.3221 
 116   0.0000       0.461467        12.5572 
 117   0.0000       0.464870        12.6498 
 118   0.0000       0.475614        12.9421 
 119   0.0000       0.485294        13.2055 
 120   0.0000       0.492709        13.4073 
 121   0.0000       0.504509        13.7284 
 122   0.0000       0.521607        14.1937 
 123   0.0000       0.529238        14.4013 
 124   0.0000       0.529624        14.4118 
 125   0.0000       0.550437        14.9782 
 126   0.0000       0.584336        15.9006 
 127   0.0000       0.613171        16.6852 
 128   0.0000       0.619030        16.8447 
 129   0.0000       0.624922        17.0050 
 130   0.0000       0.638734        17.3808 
 131   0.0000       0.649575        17.6758 
 132   0.0000       0.658171        17.9097 
 133   0.0000       0.664872        18.0921 
 134   0.0000       0.669032        18.2053 
 135   0.0000       0.700477        19.0609 
 136   0.0000       0.702720        19.1220 
 137   0.0000       0.726417        19.7668 
 138   0.0000       0.745538        20.2871 
 139   0.0000       0.770810        20.9748 
 140   0.0000       0.771016        20.9804 
 141   0.0000       0.779483        21.2108 
 142   0.0000       0.812275        22.1031 
 143   0.0000       0.826171        22.4813 
 144   0.0000       0.843908        22.9639 
 145   0.0000       0.851441        23.1689 
 146   0.0000       0.854963        23.2647 
 147   0.0000       0.874676        23.8011 
 148   0.0000       0.901738        24.5375 
 149   0.0000       0.913155        24.8482 
 150   0.0000       0.920832        25.0571 
 151   0.0000       0.935414        25.4539 
 152   0.0000       0.954361        25.9695 
 153   0.0000       0.954970        25.9860 
 154   0.0000       0.960896        26.1473 
 155   0.0000       0.974084        26.5062 
 156   0.0000       0.983056        26.7503 
 157   0.0000       0.983867        26.7724 
 158   0.0000       1.004257        27.3272 
 159   0.0000       1.004337        27.3294 
 160   0.0000       1.008542        27.4438 
 161   0.0000       1.035897        28.1882 
 162   0.0000       1.044577        28.4244 
 163   0.0000       1.062269        28.9058 
 164   0.0000       1.074351        29.2346 
 165   0.0000       1.080247        29.3950 
 166   0.0000       1.083676        29.4883 
 167   0.0000       1.139834        31.0165 
 168   0.0000       1.144338        31.1390 
 169   0.0000       1.154453        31.4143 
 170   0.0000       1.173269        31.9263 
 171   0.0000       1.192253        32.4429 
 172   0.0000       1.199271        32.6338 
 173   0.0000       1.215478        33.0748 
 174   0.0000       1.250011        34.0145 
 175   0.0000       1.261548        34.3285 
 176   0.0000       1.277277        34.7565 
 177   0.0000       1.279075        34.8054 
 178   0.0000       1.279704        34.8225 
 179   0.0000       1.293354        35.1940 
 180   0.0000       1.299268        35.3549 
 181   0.0000       1.356689        36.9174 
 182   0.0000       1.398298        38.0496 
 183   0.0000       1.406691        38.2780 
 184   0.0000       1.470952        40.0266 
 185   0.0000       1.518720        41.3265 
 186   0.0000       1.546071        42.0707 
 187   0.0000       1.586994        43.1843 
 188   0.0000       1.589617        43.2557 
 189   0.0000       1.589718        43.2584 
 190   0.0000       1.618192        44.0333 
 191   0.0000       1.632510        44.4229 
 192   0.0000       1.655478        45.0479 
 193   0.0000       1.657978        45.1159 
 194   0.0000       1.693950        46.0947 
 195   0.0000       1.694546        46.1109 
 196   0.0000       1.704968        46.3945 
 197   0.0000       1.716442        46.7068 
 198   0.0000       1.749002        47.5928 
 199   0.0000       1.761346        47.9287 
 200   0.0000       1.786972        48.6260 
 201   0.0000       1.809710        49.2447 
 202   0.0000       1.810875        49.2764 
 203   0.0000       1.815314        49.3972 
 204   0.0000       1.843889        50.1748 
 205   0.0000       1.850765        50.3619 
 206   0.0000       1.869240        50.8646 
 207   0.0000       1.911126        52.0044 
 208   0.0000       1.935011        52.6543 
 209   0.0000       1.947732        53.0005 
 210   0.0000       1.971332        53.6427 
 211   0.0000       1.973823        53.7104 
 212   0.0000       1.991084        54.1802 
 213   0.0000       2.011159        54.7264 
 214   0.0000       2.032560        55.3088 
 215   0.0000       2.045270        55.6546 
 216   0.0000       2.054558        55.9074 
 217   0.0000       2.110615        57.4327 
 218   0.0000       2.141199        58.2650 
 219   0.0000       2.149769        58.4982 
 220   0.0000       2.168266        59.0015 
 221   0.0000       2.173494        59.1438 
 222   0.0000       2.177168        59.2437 
 223   0.0000       2.206851        60.0515 
 224   0.0000       2.292778        62.3897 
 225   0.0000       2.324070        63.2412 
 226   0.0000       2.332283        63.4647 
 227   0.0000       2.332852        63.4801 
 228   0.0000       2.400193        65.3126 
 229   0.0000       2.430196        66.1290 
 230   0.0000       2.495783        67.9137 
 231   0.0000       2.563940        69.7684 
 232   0.0000       2.592158        70.5362 
 233   0.0000       2.595842        70.6365 
 234   0.0000       2.605218        70.8916 
 235   0.0000       2.627412        71.4955 
 236   0.0000       2.660165        72.3868 
 237   0.0000       2.660884        72.4063 
 238   0.0000       2.673886        72.7601 
 239   0.0000       2.674329        72.7722 
 240   0.0000       2.692770        73.2740 
 241   0.0000       2.781593        75.6910 
 242   0.0000       2.785054        75.7852 
 243   0.0000       2.829080        76.9832 
 244   0.0000       2.840735        77.3003 
 245   0.0000       2.858765        77.7909 
 246   0.0000       2.868416        78.0536 
 247   0.0000       2.883460        78.4629 
 248   0.0000       2.895553        78.7920 
 249   0.0000       2.901705        78.9594 
 250   0.0000       2.932749        79.8042 
 251   0.0000       2.937417        79.9312 
 252   0.0000       2.960842        80.5686 
 253   0.0000       2.976509        80.9949 
 254   0.0000       2.986951        81.2791 
 255   0.0000       3.002670        81.7068 
 256   0.0000       3.010646        81.9238 
 257   0.0000       3.098039        84.3019 
 258   0.0000       3.153719        85.8170 
 259   0.0000       3.188811        86.7719 
 260   0.0000       3.268807        88.9488 
 261   0.0000       3.307770        90.0090 
 262   0.0000       3.307988        90.0149 
 263   0.0000       3.342279        90.9480 
 264   0.0000       3.368404        91.6589 
 265   0.0000       3.454231        93.9944 
 266   0.0000       3.498906        95.2101 
 267   0.0000       3.559097        96.8480 
 268   0.0000       3.594664        97.8158 
 269   0.0000       3.680880       100.1618 
 270   0.0000       3.703874       100.7875 
 271   0.0000       3.753895       102.1487 
 272   0.0000       3.853590       104.8615 
 273   0.0000       3.885349       105.7257 
 274   0.0000       3.889544       105.8399 
 275   0.0000       3.891295       105.8875 
 276   0.0000       3.904307       106.2416 
 277   0.0000       3.924848       106.8005 
 278   0.0000       4.014449       109.2387 
 279   0.0000       4.060019       110.4787 
 280   0.0000       4.119982       112.1104 
 281   0.0000       4.144199       112.7694 
 282   0.0000       4.169102       113.4470 
 283   0.0000       4.405644       119.8837 
 284   0.0000       4.480679       121.9255 
 285   0.0000       4.503767       122.5537 
 286   0.0000       4.760915       129.5511 
 287   0.0000       4.942767       134.4995 
 288   0.0000       5.071374       137.9991 
 289   0.0000       5.099792       138.7724 
 290   0.0000       5.191507       141.2681 
 291   0.0000       5.220328       142.0523 
 292   0.0000       5.314702       144.6204 
 293   0.0000       5.698701       155.0695 
 294   0.0000       6.130770       166.8267 
 295   0.0000       6.420367       174.7071 
 296   0.0000       6.540714       177.9819 
 297   0.0000       6.841312       186.1616 
 298   0.0000       7.978996       217.1195 
 299   0.0000      17.547157       477.4824 
 300   0.0000      17.549639       477.5500 
 301   0.0000      17.640772       480.0298 
 302   0.0000      23.652306       643.6120 
 303   0.0000      23.890549       650.0949 
 304   0.0000      23.984229       652.6441 
 305   0.0000      24.031010       653.9170 
 306   0.0000      24.071275       655.0127 
 307   0.0000      24.181690       658.0172 
 308   0.0000      35.375307       962.6110 
 309   0.0000      35.657312       970.2848 
 310   0.0000      49.901013      1357.8756 
 311   0.0000      49.963906      1359.5870 
 312   0.0000      66.793125      1817.5333 
 313   0.0000     188.968073      5142.0827 

--------------------
FRAGMENT INFORMATION
--------------------
Fragment  1:    0   1   2   3   4   5 
Fragment  2:    6   7   8   9  10  11  12 
Fragment  3:   13  14  15  16 
Fragment  4:   17 


                    ********************************
                    * MULLIKEN POPULATION ANALYSIS *
                    ********************************

-------------------------
MULLIKEN FRAGMENT CHARGES
-------------------------
 Fragment   0 :  -0.453618
 Fragment   1 :   0.453614
 Fragment   2 :  -0.026802
 Fragment   3 :  -0.973195
Sum of fragment charges:   -1.0000000

---------------------------------
MULLIKEN FRAGMENT OVERLAP CHARGES
---------------------------------
                  0          1          2          3    
      0      20.720832   0.553343  -0.000058  -0.000555
      1       0.553343  34.997612   0.000012   0.001244
      2      -0.000058   0.000012  11.649875  -0.670930
      3      -0.000555   0.001244  -0.670930  17.308316

-----------------------
MULLIKEN ATOMIC CHARGES
-----------------------
   0 C :   -0.040881
   1 N :   -0.190476
   2 C :   -0.303181
   3 C :   -0.260011
   4 C :    0.426760
   5 C :   -0.085828
   6 N :   -0.049814
   7 O :   -0.061558
   8 O :   -0.236414
   9 F :   -0.102660
  10 H :    0.295565
  11 H :    0.281291
  12 H :    0.327204
  13 C :   -0.408019
  14 H :    0.126866
  15 H :    0.127187
  16 H :    0.127166
  17 S :   -0.973195
Sum of atomic charges:   -1.0000000

--------------------------------
MULLIKEN REDUCED ORBITAL CHARGES
--------------------------------
  0 C s       :     3.287167  s :     3.287167
      pz      :     0.674381  p :     2.593277
      px      :     0.975165
      py      :     0.943731
      dz2     :     0.052756  d :     0.160437
      dxz     :     0.048842
      dyz     :     0.028432
      dx2y2   :     0.013769
      dxy     :     0.016637
  1 N s       :     3.615705  s :     3.615705
      pz      :     1.142018  p :     3.544246
      px      :     1.238121
      py      :     1.164107
      dz2     :     0.008166  d :     0.030525
      dxz     :     0.007239
      dyz     :     0.004758
      dx2y2   :     0.005504
      dxy     :     0.004858
  2 C s       :     3.384057  s :     3.384057
      pz      :     0.812218  p :     2.834979
      px      :     1.169828
      py      :     0.852933
      dz2     :     0.023583  d :     0.084145
      dxz     :     0.032193
      dyz     :     0.014799
      dx2y2   :     0.007223
      dxy     :     0.006348
  3 C s       :     3.214348  s :     3.214348
      pz      :     1.154451  p :     2.992505
      px      :     0.871757
      py      :     0.966297
      dz2     :     0.015293  d :     0.053158
      dxz     :     0.017413
      dyz     :     0.005093
      dx2y2   :     0.008218
      dxy     :     0.007142
  4 C s       :     2.520599  s :     2.520599
      pz      :     0.900516  p :     2.995554
      px      :     1.251696
      py      :     0.843342
      dz2     :     0.016546  d :     0.057088
      dxz     :     0.015855
      dyz     :     0.010565
      dx2y2   :     0.007214
      dxy     :     0.006907
  5 C s       :     3.308432  s :     3.308432
      pz      :     1.098413  p :     2.704257
      px      :     0.478503
      py      :     1.127341
      dz2     :     0.013626  d :     0.073140
      dxz     :     0.029771
      dyz     :     0.010340
      dx2y2   :     0.011214
      dxy     :     0.008189
  6 N s       :     3.568267  s :     3.568267
      pz      :     1.058674  p :     3.372559
      px      :     1.211683
      py      :     1.102202
      dz2     :     0.027716  d :     0.108988
      dxz     :     0.039357
      dyz     :     0.023078
      dx2y2   :     0.008552
      dxy     :     0.010284
  7 O s       :     3.784479  s :     3.784479
      pz      :     1.029010  p :     4.258382
      px      :     1.828512
      py      :     1.400859
      dz2     :     0.009710  d :     0.018697
      dxz     :     0.003512
      dyz     :     0.005306
      dx2y2   :     0.000102
      dxy     :     0.000067
  8 O s       :     3.822092  s :     3.822092
      pz      :     1.625428  p :     4.402207
      px      :     1.218240
      py      :     1.558539
      dz2     :     0.001059  d :     0.012115
      dxz     :     0.004900
      dyz     :     0.000879
      dx2y2   :     0.003117
      dxy     :     0.002159
  9 F s       :     3.918762  s :     3.918762
      pz      :     1.389088  p :     5.178566
      px      :     1.915857
      py      :     1.873621
      dz2     :     0.003097  d :     0.005332
      dxz     :     0.000997
      dyz     :     0.001201
      dx2y2   :     0.000027
      dxy     :     0.000009
 10 H s       :     0.680533  s :     0.680533
      pz      :     0.005482  p :     0.023902
      px      :     0.014122
      py      :     0.004298
 11 H s       :     0.693745  s :     0.693745
      pz      :     0.016375  p :     0.024964
      px      :     0.003655
      py      :     0.004935
 12 H s       :     0.647276  s :     0.647276
      pz      :     0.007744  p :     0.025521
      px      :     0.013379
      py      :     0.004397
 13 C s       :     3.267645  s :     3.267645
      pz      :     1.051991  p :     3.087736
      px      :     1.052567
      py      :     0.983178
      dz2     :     0.007582  d :     0.052638
      dxz     :     0.007645
      dyz     :     0.015319
      dx2y2   :     0.014987
      dxy     :     0.007103
 14 H s       :     0.850419  s :     0.850419
      pz      :     0.009114  p :     0.022715
      px      :     0.004907
      py      :     0.008695
 15 H s       :     0.850082  s :     0.850082
      pz      :     0.005093  p :     0.022731
      px      :     0.012987
      py      :     0.004651
 16 H s       :     0.850120  s :     0.850120
      pz      :     0.010507  p :     0.022714
      px      :     0.006909
      py      :     0.005299
 17 S s       :     6.021047  s :     6.021047
      pz      :     3.893750  p :    10.920745
      px      :     3.902731
      py      :     3.124264
      dz2     :     0.003953  d :     0.031404
      dxz     :     0.001206
      dyz     :     0.008089
      dx2y2   :     0.010774
      dxy     :     0.007382


                     *******************************
                     * LOEWDIN POPULATION ANALYSIS *
                     *******************************

------------------------
LOEWDIN FRAGMENT CHARGES
------------------------
 Fragment   0 :   0.057602
 Fragment   1 :  -0.057919
 Fragment   2 :  -0.355360
 Fragment   3 :  -0.644323

----------------------------
LOEWDIN FRAGMENT BOND ORDERS
----------------------------
                  0          1          2          3    
      0      56.961629   6.779320   0.000257   0.000950
      1       6.779320  43.787483   0.000036   0.000233
      2       0.000257   0.000036  15.419421   1.743259
      3       0.000950   0.000233   1.743259  16.644323

----------------------
LOEWDIN ATOMIC CHARGES
----------------------
   0 C :    0.111354
   1 N :   -0.111660
   2 C :    0.077374
   3 C :   -0.033762
   4 C :    0.078105
   5 C :   -0.063808
   6 N :    0.241546
   7 O :   -0.154238
   8 O :   -0.338792
   9 F :   -0.078158
  10 H :    0.086998
  11 H :    0.084556
  12 H :    0.100169
  13 C :   -0.358528
  14 H :    0.001098
  15 H :    0.001097
  16 H :    0.000973
  17 S :   -0.644323

-------------------------------
LOEWDIN REDUCED ORBITAL CHARGES
-------------------------------
  0 C s       :     2.743782  s :     2.743782
      pz      :     0.849311  p :     2.815740
      px      :     1.080488
      py      :     0.885942
      dz2     :     0.112518  d :     0.329124
      dxz     :     0.100704
      dyz     :     0.050384
      dx2y2   :     0.033881
      dxy     :     0.031637
  1 N s       :     3.151444  s :     3.151444
      pz      :     1.301208  p :     3.903376
      px      :     1.416951
      py      :     1.185218
      dz2     :     0.017386  d :     0.056840
      dxz     :     0.015719
      dyz     :     0.007792
      dx2y2   :     0.009545
      dxy     :     0.006398
  2 C s       :     2.786895  s :     2.786895
      pz      :     1.032902  p :     2.953888
      px      :     1.096540
      py      :     0.824446
      dz2     :     0.060305  d :     0.181843
      dxz     :     0.069050
      dyz     :     0.027981
      dx2y2   :     0.014019
      dxy     :     0.010487
  3 C s       :     2.781257  s :     2.781257
      pz      :     1.081365  p :     3.128146
      px      :     1.092121
      py      :     0.954659
      dz2     :     0.034117  d :     0.124359
      dxz     :     0.045070
      dyz     :     0.008014
      dx2y2   :     0.022214
      dxy     :     0.014945
  4 C s       :     2.779233  s :     2.779233
      pz      :     1.065820  p :     3.014363
      px      :     1.108241
      py      :     0.840302
      dz2     :     0.040907  d :     0.128299
      dxz     :     0.039160
      dyz     :     0.021256
      dx2y2   :     0.015048
      dxy     :     0.011928
  5 C s       :     2.757926  s :     2.757926
      pz      :     1.088506  p :     3.125558
      px      :     0.957224
      py      :     1.079828
      dz2     :     0.039906  d :     0.180323
      dxz     :     0.071780
      dyz     :     0.019834
      dx2y2   :     0.031419
      dxy     :     0.017384
  6 N s       :     3.051917  s :     3.051917
      pz      :     1.205958  p :     3.500172
      px      :     1.215104
      py      :     1.079111
      dz2     :     0.060435  d :     0.206365
      dxz     :     0.076191
      dyz     :     0.035697
      dx2y2   :     0.017519
      dxy     :     0.016522
  7 O s       :     3.581164  s :     3.581164
      pz      :     1.283755  p :     4.540764
      px      :     1.838843
      py      :     1.418167
      dz2     :     0.020435  d :     0.032310
      dxz     :     0.005156
      dyz     :     0.006528
      dx2y2   :     0.000119
      dxy     :     0.000071
  8 O s       :     3.667340  s :     3.667340
      pz      :     1.709922  p :     4.650970
      px      :     1.369822
      py      :     1.571226
      dz2     :     0.001545  d :     0.020482
      dxz     :     0.009264
      dyz     :     0.001173
      dx2y2   :     0.005711
      dxy     :     0.002789
  9 F s       :     3.714914  s :     3.714914
      pz      :     1.535229  p :     5.355874
      px      :     1.934367
      py      :     1.886278
      dz2     :     0.004766  d :     0.007370
      dxz     :     0.001184
      dyz     :     0.001375
      dx2y2   :     0.000037
      dxy     :     0.000009
 10 H s       :     0.842606  s :     0.842606
      pz      :     0.016677  p :     0.070396
      px      :     0.042294
      py      :     0.011425
 11 H s       :     0.842997  s :     0.842997
      pz      :     0.047836  p :     0.072447
      px      :     0.011209
      py      :     0.013402
 12 H s       :     0.826607  s :     0.826607
      pz      :     0.023099  p :     0.073224
      px      :     0.038714
      py      :     0.011412
 13 C s       :     2.858162  s :     2.858162
      pz      :     1.121901  p :     3.393480
      px      :     1.121494
      py      :     1.150085
      dz2     :     0.014992  d :     0.106885
      dxz     :     0.014568
      dyz     :     0.031369
      dx2y2   :     0.031351
      dxy     :     0.014605
 14 H s       :     0.927044  s :     0.927044
      pz      :     0.028453  p :     0.071857
      px      :     0.014373
      py      :     0.029031
 15 H s       :     0.927101  s :     0.927101
      pz      :     0.015158  p :     0.071802
      px      :     0.042100
      py      :     0.014544
 16 H s       :     0.927250  s :     0.927250
      pz      :     0.033701  p :     0.071777
      px      :     0.021070
      py      :     0.017007
 17 S s       :     5.613269  s :     5.613269
      pz      :     3.858826  p :    10.993907
      px      :     3.866173
      py      :     3.268909
      dz2     :     0.004676  d :     0.037147
      dxz     :     0.001396
      dyz     :     0.009525
      dx2y2   :     0.012876
      dxy     :     0.008675


                      *****************************
                      * MAYER POPULATION ANALYSIS *
                      *****************************

  NA   - Mulliken gross atomic population
  ZA   - Total nuclear charge
  QA   - Mulliken gross atomic charge
  VA   - Mayer's total valence
  BVA  - Mayer's bonded valence
  FA   - Mayer's free valence

  ATOM       NA         ZA         QA         VA         BVA        FA
  0 C      6.0409     6.0000    -0.0409     4.3315     4.3315    -0.0000
  1 N      7.1905     7.0000    -0.1905     2.6997     2.6997     0.0000
  2 C      6.3032     6.0000    -0.3032     3.9829     3.9829    -0.0000
  3 C      6.2600     6.0000    -0.2600     4.3215     4.3215    -0.0000
  4 C      5.5732     6.0000     0.4268     4.1686     4.1686     0.0000
  5 C      6.0858     6.0000    -0.0858     3.3440     3.3440    -0.0000
  6 N      7.0498     7.0000    -0.0498     3.9141     3.9141     0.0000
  7 O      8.0616     8.0000    -0.0616     2.2283     2.2283     0.0000
  8 O      8.2364     8.0000    -0.2364     2.0065     2.0065    -0.0000
  9 F      9.1027     9.0000    -0.1027     0.9621     0.9621     0.0000
 10 H      0.7044     1.0000     0.2956     0.8722     0.8722    -0.0000
 11 H      0.7187     1.0000     0.2813     0.9028     0.9028    -0.0000
 12 H      0.6728     1.0000     0.3272     0.8324     0.8324    -0.0000
 13 C      6.4080     6.0000    -0.4080     3.5745     3.5745    -0.0000
 14 H      0.8731     1.0000     0.1269     0.9432     0.9432     0.0000
 15 H      0.8728     1.0000     0.1272     0.9414     0.9414    -0.0000
 16 H      0.8728     1.0000     0.1272     0.9408     0.9408    -0.0000
 17 S     16.9732    16.0000    -0.9732     0.5989     0.5989    -0.0000

  Mayer bond orders larger than 0.100000
B(  0-C ,  1-N ) :   1.2902 B(  0-C ,  2-C ) :   0.1937 B(  0-C ,  3-C ) :   0.1337 
[...]
 289   0.0000       5.124311       139.4396 
 290   0.0000       5.195168       141.3677 
 291   0.0000       5.287848       143.8896 
 292   0.0000       5.370647       146.1427 
 293   0.0000       5.860304       159.4670 
 294   0.0000       6.335160       172.3885 
 295   0.0000       6.428567       174.9302 
 296   0.0000       6.551116       178.2649 
 297   0.0000       6.861993       186.7243 
 298   0.0000       7.979046       217.1209 
 299   0.0000      17.547141       477.4820 
 300   0.0000      17.549607       477.5491 
 301   0.0000      17.640819       480.0311 
 302   0.0000      23.702715       644.9837 
 303   0.0000      23.955096       651.8513 
 304   0.0000      24.018396       653.5738 
 305   0.0000      24.030314       653.8981 
 306   0.0000      24.137086       656.8035 
 307   0.0000      24.246257       659.7742 
 308   0.0000      35.449645       964.6339 
 309   0.0000      35.736770       972.4469 
 310   0.0000      49.922066      1358.4485 
 311   0.0000      50.037266      1361.5832 
 312   0.0000      66.806482      1817.8968 
 313   0.0000     188.968127      5142.0842 

--------------------
FRAGMENT INFORMATION
--------------------
Fragment  1:    0   1   2   3   4   5 
Fragment  2:    6   7   8   9  10  11  12 
Fragment  3:   13  14  15  16 
Fragment  4:   17 


                    ********************************
                    * MULLIKEN POPULATION ANALYSIS *
                    ********************************

-------------------------
MULLIKEN FRAGMENT CHARGES
-------------------------
 Fragment   0 :  -0.463825
 Fragment   1 :   0.463832
 Fragment   2 :  -0.026822
 Fragment   3 :  -0.973186
Sum of fragment charges:   -1.0000000

---------------------------------
MULLIKEN FRAGMENT OVERLAP CHARGES
---------------------------------
                  0          1          2          3    
      0      19.011151   0.392466  -0.000037  -0.000681
      1       0.392466  35.147327  -0.000001   0.001275
      2      -0.000037  -0.000001  11.649032  -0.668807
      3      -0.000681   0.001275  -0.668807  17.307292

-----------------------
MULLIKEN ATOMIC CHARGES
-----------------------
   0 C :   -0.017316
   1 N :   -0.179024
   2 C :   -0.296571
   3 C :   -0.313321
   4 C :    0.498355
   5 C :   -0.155947
   6 N :   -0.006438
   7 O :   -0.179640
   8 O :   -0.117327
   9 F :   -0.117866
  10 H :    0.284734
  11 H :    0.279843
  12 H :    0.320527
  13 C :   -0.407974
  14 H :    0.126763
  15 H :    0.127182
  16 H :    0.127208
  17 S :   -0.973186
Sum of atomic charges:   -1.0000000

--------------------------------
MULLIKEN REDUCED ORBITAL CHARGES
--------------------------------
  0 C s       :     3.251197  s :     3.251197
      pz      :     0.668971  p :     2.595865
      px      :     0.979290
      py      :     0.947603
      dz2     :     0.057191  d :     0.170255
      dxz     :     0.050563
      dyz     :     0.029443
      dx2y2   :     0.014683
      dxy     :     0.018373
  1 N s       :     3.595088  s :     3.595088
      pz      :     1.151004  p :     3.549400
      px      :     1.245672
      py      :     1.152724
      dz2     :     0.008761  d :     0.034536
      dxz     :     0.008596
      dyz     :     0.005222
      dx2y2   :     0.006105
      dxy     :     0.005852
  2 C s       :     3.330375  s :     3.330375
      pz      :     0.825831  p :     2.877237
      px      :     1.181357
      py      :     0.870049
      dz2     :     0.025190  d :     0.088960
      dxz     :     0.033458
      dyz     :     0.015876
      dx2y2   :     0.007894
      dxy     :     0.006542
  3 C s       :     3.255743  s :     3.255743
      pz      :     1.152626  p :     3.001970
      px      :     0.881893
      py      :     0.967451
      dz2     :     0.015875  d :     0.055608
      dxz     :     0.018406
      dyz     :     0.005669
      dx2y2   :     0.008192
      dxy     :     0.007466
  4 C s       :     2.435339  s :     2.435339
      pz      :     0.917676  p :     3.006664
      px      :     1.243713
      py      :     0.845274
      dz2     :     0.017010  d :     0.059643
      dxz     :     0.016371
      dyz     :     0.011362
      dx2y2   :     0.007699
      dxy     :     0.007202
  5 C s       :     3.355952  s :     3.355952
      pz      :     1.098917  p :     2.726355
      px      :     0.492675
      py      :     1.134763
      dz2     :     0.013350  d :     0.073640
      dxz     :     0.030696
      dyz     :     0.010369
      dx2y2   :     0.011127
      dxy     :     0.008097
  6 N s       :     3.474988  s :     3.474988
      pz      :     1.053805  p :     3.394238
      px      :     1.231242
      py      :     1.109191
      dz2     :     0.036947  d :     0.137212
      dxz     :     0.044522
      dyz     :     0.027758
      dx2y2   :     0.012477
      dxy     :     0.015508
  7 O s       :     3.811971  s :     3.811971
      pz      :     1.029409  p :     4.349611
      px      :     1.843291
      py      :     1.476910
      dz2     :     0.009694  d :     0.018059
      dxz     :     0.003216
      dyz     :     0.004973
      dx2y2   :     0.000107
      dxy     :     0.000069
  8 O s       :     3.777665  s :     3.777665
      pz      :     1.607489  p :     4.319761
      px      :     1.277183
      py      :     1.435089
      dz2     :     0.002223  d :     0.019902
      dxz     :     0.006979
      dyz     :     0.001742
      dx2y2   :     0.004670
      dxy     :     0.004287
  9 F s       :     3.917637  s :     3.917637
      pz      :     1.398714  p :     5.194994
      px      :     1.917950
      py      :     1.878331
      dz2     :     0.003050  d :     0.005235
      dxz     :     0.000973
      dyz     :     0.001172
      dx2y2   :     0.000030
      dxy     :     0.000010
 10 H s       :     0.691965  s :     0.691965
      pz      :     0.004494  p :     0.023301
      px      :     0.014485
      py      :     0.004322
 11 H s       :     0.694969  s :     0.694969
      pz      :     0.016422  p :     0.025188
      px      :     0.003784
      py      :     0.004982
 12 H s       :     0.653618  s :     0.653618
      pz      :     0.007695  p :     0.025855
      px      :     0.013670
      py      :     0.004490
 13 C s       :     3.267789  s :     3.267789
      pz      :     1.052136  p :     3.087551
      px      :     1.052494
      py      :     0.982921
      dz2     :     0.007595  d :     0.052634
      dxz     :     0.007588
      dyz     :     0.015338
      dx2y2   :     0.014982
      dxy     :     0.007131
 14 H s       :     0.850542  s :     0.850542
      pz      :     0.009133  p :     0.022695
      px      :     0.004901
      py      :     0.008661
 15 H s       :     0.850091  s :     0.850091
      pz      :     0.005084  p :     0.022727
      px      :     0.012993
      py      :     0.004650
 16 H s       :     0.850082  s :     0.850082
      pz      :     0.010506  p :     0.022711
      px      :     0.006895
      py      :     0.005310
 17 S s       :     6.021010  s :     6.021010
      pz      :     3.895985  p :    10.920772
      px      :     3.902350
      py      :     3.122436
      dz2     :     0.003981  d :     0.031405
      dxz     :     0.001189
      dyz     :     0.008012
      dx2y2   :     0.010808
      dxy     :     0.007414


                     *******************************
                     * LOEWDIN POPULATION ANALYSIS *
                     *******************************

------------------------
LOEWDIN FRAGMENT CHARGES
------------------------
 Fragment   0 :   0.040936
 Fragment   1 :  -0.041260
 Fragment   2 :  -0.355378
 Fragment   3 :  -0.644298

----------------------------
LOEWDIN FRAGMENT BOND ORDERS
----------------------------
                  0          1          2          3    
      0      57.184929   6.721975   0.000259   0.000951
      1       6.721975  44.208632   0.000036   0.000235
      2       0.000259   0.000036  15.419184   1.743345
      3       0.000951   0.000235   1.743345  16.644298

----------------------
LOEWDIN ATOMIC CHARGES
----------------------
   0 C :    0.083206
   1 N :   -0.080142
   2 C :    0.058248
   3 C :   -0.032733
   4 C :    0.075459
   5 C :   -0.063103
   6 N :    0.202802
   7 O :   -0.224831
   8 O :   -0.198553
   9 F :   -0.088320
  10 H :    0.083788
  11 H :    0.085969
  12 H :    0.097885
  13 C :   -0.358646
  14 H :    0.001203
  15 H :    0.001091
  16 H :    0.000975
  17 S :   -0.644298

-------------------------------
LOEWDIN REDUCED ORBITAL CHARGES
-------------------------------
  0 C s       :     2.730782  s :     2.730782
      pz      :     0.852210  p :     2.834869
      px      :     1.094767
      py      :     0.887892
      dz2     :     0.121861  d :     0.351142
      dxz     :     0.104216
      dyz     :     0.052160
      dx2y2   :     0.037301
      dxy     :     0.035603
  1 N s       :     3.108492  s :     3.108492
      pz      :     1.300910  p :     3.906672
      px      :     1.432790
      py      :     1.172971
      dz2     :     0.019006  d :     0.064978
      dxz     :     0.018326
      dyz     :     0.009056
      dx2y2   :     0.010738
      dxy     :     0.007853
  2 C s       :     2.774354  s :     2.774354
      pz      :     1.042280  p :     2.973726
      px      :     1.092712
      py      :     0.838734
      dz2     :     0.064370  d :     0.193672
      dxz     :     0.072802
      dyz     :     0.030564
      dx2y2   :     0.015181
      dxy     :     0.010756
  3 C s       :     2.772383  s :     2.772383
      pz      :     1.079694  p :     3.130913
      px      :     1.096063
      py      :     0.955156
      dz2     :     0.035202  d :     0.129437
      dxz     :     0.047268
      dyz     :     0.008819
      dx2y2   :     0.022389
      dxy     :     0.015758
  4 C s       :     2.767930  s :     2.767930
      pz      :     1.074374  p :     3.021741
      px      :     1.105454
      py      :     0.841913
      dz2     :     0.042257  d :     0.134870
      dxz     :     0.040973
      dyz     :     0.022986
      dx2y2   :     0.016056
      dxy     :     0.012599
  5 C s       :     2.752329  s :     2.752329
      pz      :     1.090811  p :     3.128933
      px      :     0.955863
      py      :     1.082259
      dz2     :     0.039827  d :     0.181840
      dxz     :     0.073723
      dyz     :     0.020132
      dx2y2   :     0.030895
      dxy     :     0.017263
  6 N s       :     3.000171  s :     3.000171
      pz      :     1.218083  p :     3.531601
      px      :     1.231805
      py      :     1.081713
      dz2     :     0.078831  d :     0.265426
      dxz     :     0.090461
      dyz     :     0.043866
      dx2y2   :     0.027045
      dxy     :     0.025222
  7 O s       :     3.573860  s :     3.573860
      pz      :     1.278990  p :     4.619433
      px      :     1.850487
      py      :     1.489956
      dz2     :     0.020358  d :     0.031538
      dxz     :     0.004804
      dyz     :     0.006170
      dx2y2   :     0.000133
      dxy     :     0.000074
  8 O s       :     3.550751  s :     3.550751
      pz      :     1.712920  p :     4.612848
      px      :     1.446975
      py      :     1.452953
      dz2     :     0.003459  d :     0.034954
      dxz     :     0.014219
      dyz     :     0.002406
      dx2y2   :     0.009206
      dxy     :     0.005665
  9 F s       :     3.713863  s :     3.713863
      pz      :     1.539327  p :     5.367195
      px      :     1.937522
      py      :     1.890347
      dz2     :     0.004697  d :     0.007262
      dxz     :     0.001169
      dyz     :     0.001345
      dx2y2   :     0.000040
      dxy     :     0.000010
 10 H s       :     0.847597  s :     0.847597
      pz      :     0.014059  p :     0.068615
      px      :     0.042894
      py      :     0.011662
 11 H s       :     0.841837  s :     0.841837
      pz      :     0.047437  p :     0.072195
      px      :     0.011369
      py      :     0.013389
 12 H s       :     0.828386  s :     0.828386
      pz      :     0.022663  p :     0.073729
      px      :     0.039435
      py      :     0.011631
 13 C s       :     2.858381  s :     2.858381
      pz      :     1.121762  p :     3.393396
      px      :     1.121507
      py      :     1.150128
      dz2     :     0.015023  d :     0.106869
      dxz     :     0.014445
      dyz     :     0.031391
      dx2y2   :     0.031342
      dxy     :     0.014668
 14 H s       :     0.927033  s :     0.927033
      pz      :     0.028503  p :     0.071764
      px      :     0.014352
      py      :     0.028908
 15 H s       :     0.927119  s :     0.927119
      pz      :     0.015126  p :     0.071790
      px      :     0.042124
      py      :     0.014540
 16 H s       :     0.927257  s :     0.927257
      pz      :     0.033694  p :     0.071768
      px      :     0.021024
      py      :     0.017050
 17 S s       :     5.613279  s :     5.613279
      pz      :     3.860536  p :    10.993868
      px      :     3.865868
      py      :     3.267463
      dz2     :     0.004713  d :     0.037151
      dxz     :     0.001376
      dyz     :     0.009430
      dx2y2   :     0.012918
      dxy     :     0.008715


                      *****************************
                      * MAYER POPULATION ANALYSIS *
                      *****************************

  NA   - Mulliken gross atomic population
  ZA   - Total nuclear charge
  QA   - Mulliken gross atomic charge
  VA   - Mayer's total valence
  BVA  - Mayer's bonded valence
  FA   - Mayer's free valence

  ATOM       NA         ZA         QA         VA         BVA        FA
  0 C      6.0173     6.0000    -0.0173     4.2655     4.2655     0.0000
  1 N      7.1790     7.0000    -0.1790     2.7222     2.7222    -0.0000
  2 C      6.2966     6.0000    -0.2966     4.0353     4.0353     0.0000
  3 C      6.3133     6.0000    -0.3133     4.4498     4.4498     0.0000
  4 C      5.5016     6.0000     0.4984     4.0771     4.0771     0.0000
  5 C      6.1559     6.0000    -0.1559     3.3279     3.3279     0.0000
  6 N      7.0064     7.0000    -0.0064     4.0208     4.0208     0.0000
  7 O      8.1796     8.0000    -0.1796     2.1146     2.1146    -0.0000
  8 O      8.1173     8.0000    -0.1173     2.1917     2.1917     0.0000
  9 F      9.1179     9.0000    -0.1179     0.9240     0.9240     0.0000
 10 H      0.7153     1.0000     0.2847     0.8742     0.8742     0.0000
 11 H      0.7202     1.0000     0.2798     0.9066     0.9066    -0.0000
 12 H      0.6795     1.0000     0.3205     0.8390     0.8390     0.0000
 13 C      6.4080     6.0000    -0.4080     3.5746     3.5746    -0.0000
 14 H      0.8732     1.0000     0.1268     0.9432     0.9432    -0.0000
 15 H      0.8728     1.0000     0.1272     0.9414     0.9414    -0.0000
 16 H      0.8728     1.0000     0.1272     0.9408     0.9408    -0.0000
 17 S     16.9732    16.0000    -0.9732     0.5989     0.5989    -0.0000

  Mayer bond orders larger than 0.100000
B(  0-C ,  1-N ) :   1.2978 B(  0-C ,  2-C ) :   0.1759 B(  0-C ,  3-C ) :   0.1536 
B(  0-C ,  4-C ) :   0.2530 B(  0-C ,  5-C ) :   1.2327 B(  0-C ,  6-N ) :  -0.1788 
B(  0-C ,  7-O ) :   0.1104 B(  0-C ,  8-O ) :  -0.1140 B(  0-C ,  9-F ) :   1.3603 
B(  1-N ,  2-C ) :   1.1701 B(  1-N ,  5-C ) :   0.1981 B(  2-C ,  3-C ) :   1.6659 
B(  2-C ,  5-C ) :   0.1101 B(  2-C , 10-H ) :   0.8853 B(  3-C ,  4-C ) :   1.4414 
B(  3-C ,  8-O ) :   0.1477 B(  3-C , 11-H ) :   0.8448 B(  4-C ,  5-C ) :   1.5675 
B(  4-C ,  8-O ) :   0.2512 B(  4-C ,  9-F ) :  -0.1274 B(  4-C , 12-H ) :   0.7251 
B(  5-C ,  6-N ) :   0.6495 B(  5-C ,  7-O ) :  -0.1291 B(  5-C ,  8-O ) :  -0.2103 
B(  5-C ,  9-F ) :  -0.3356 B(  5-C , 12-H ) :   0.1401 B(  6-N ,  7-O ) :   1.8345 
B(  6-N ,  8-O ) :   1.8628 B(  7-O ,  8-O ) :   0.2374 B( 13-C , 14-H ) :   0.9808 
B( 13-C , 15-H ) :   0.9821 B( 13-C , 16-H ) :   0.9832 B( 13-C , 17-S ) :   0.6292 


-------
TIMINGS
-------

Total SCF time: 0 days 0 hours 0 min 18 sec 

Total time                  ....      18.066 sec
Sum of individual times     ....      17.342 sec  ( 96.0%)

Fock matrix formation       ....      15.370 sec  ( 85.1%)
  Split-RI-J                ....       0.894 sec  (  5.8% of F)
  Chain of spheres X        ....      11.050 sec  ( 71.9% of F)
  XC integration            ....       1.963 sec  ( 12.8% of F)
    Basis function eval.    ....       0.173 sec  (  8.8% of XC)
    Density eval.           ....       0.431 sec  ( 22.0% of XC)
    XC-Functional eval.     ....       0.085 sec  (  4.3% of XC)
    XC-Potential eval.      ....       0.116 sec  (  5.9% of XC)
Diagonalization             ....       0.035 sec  (  0.2%)
Density matrix formation    ....       0.013 sec  (  0.1%)
Population analysis         ....       0.072 sec  (  0.4%)
Initial guess               ....       0.045 sec  (  0.2%)
Orbital Transformation      ....       0.000 sec  (  0.0%)
Orbital Orthonormalization  ....       0.034 sec  (  0.2%)
DIIS solution               ....       0.013 sec  (  0.1%)
SOSCF solution              ....       0.125 sec  (  0.7%)
Grid generation             ....       1.670 sec  (  9.2%)

Maximum memory used throughout the entire SCF-calculation: 68.4 MB

-------------------------   --------------------
FINAL SINGLE POINT ENERGY      -990.263964312728
-------------------------   --------------------

                                *** OPTIMIZATION RUN DONE ***

                            ***************************************
                            *     ORCA property calculations      *
                            ***************************************

                                    ---------------------
                                    Active property flags
                                    ---------------------
   (+) Dipole Moment


------------------------------------------------------------------------------
                       ORCA ELECTRIC PROPERTIES CALCULATION
------------------------------------------------------------------------------

Dipole Moment Calculation                       ... on
Quadrupole Moment Calculation                   ... off
Polarizability Calculation                      ... off
GBWName                                         ... structure_opt.gbw
Electron density                                ... structure_opt.scfp
The origin for moment calculation is the CENTER OF MASS  = (-2.311563, -3.019760  4.498070)

-------------
DIPOLE MOMENT
-------------
                                X             Y             Z
Electronic contribution:      4.31555      23.88618      -6.32342
Nuclear contribution   :     -1.55326     -15.69928       9.86529
                        -----------------------------------------
Total Dipole Moment    :      2.76229       8.18690       3.54187
                        -----------------------------------------
Magnitude (a.u.)       :      9.33812
Magnitude (Debye)      :     23.73562



--------------------
Rotational spectrum 
--------------------
 
Rotational constants in cm-1:     0.027487     0.008188     0.007535 
Rotational constants in MHz :   824.047234   245.483855   225.898720 

 Dipole components along the rotational axes: 
x,y,z [a.u.] :     8.570736    -2.677152     2.564338 
x,y,z [Debye]:    21.785080    -6.804778     6.518029 

 

Timings for individual modules:

Sum of individual times         ...     1194.551 sec (=  19.909 min)
GTO integral calculation        ...       66.546 sec (=   1.109 min)   5.6 %
SCF iterations                  ...      925.974 sec (=  15.433 min)  77.5 %
SCF Gradient evaluation         ...      200.312 sec (=   3.339 min)  16.8 %
Geometry relaxation             ...        1.719 sec (=   0.029 min)   0.1 %
                             ****ORCA TERMINATED NORMALLY****
TOTAL RUN TIME: 0 days 0 hours 21 minutes 6 seconds 969 msec
