
                                 *****************
                                 * O   R   C   A *
                                 *****************

                                            #,                                       
                                            ###                                      
                                            ####                                     
                                            #####                                    
                                            ######                                   
                                           ########,                                 
                                     ,,################,,,,,                         
                               ,,#################################,,                 
                          ,,##########################################,,             
                       ,#########################################, ''#####,          
                    ,#############################################,,   '####,        
                  ,##################################################,,,,####,       
                ,###########''''           ''''###############################       
              ,#####''   ,,,,##########,,,,          '''####'''          '####       
            ,##' ,,,,###########################,,,                        '##       
           ' ,,###''''                  '''############,,,                           
         ,,##''                                '''############,,,,        ,,,,,,###''
      ,#''                                            '''#######################'''  
     '                                                          ''''####''''         
             ,#######,   #######,   ,#######,      ##                                
            ,#'     '#,  ##    ##  ,#'     '#,    #''#        ######   ,####,        
            ##       ##  ##   ,#'  ##            #'  '#       #        #'  '#        
            ##       ##  #######   ##           ,######,      #####,   #    #        
            '#,     ,#'  ##    ##  '#,     ,#' ,#      #,         ##   #,  ,#        
             '#######'   ##     ##  '#######'  #'      '#     #####' # '####'        



                  #######################################################
                  #                        -***-                        #
                  #          Department of theory and spectroscopy      #
                  #    Directorship and core code : Frank Neese         #
                  #        Max Planck Institute fuer Kohlenforschung    #
                  #                Kaiser Wilhelm Platz 1               #
                  #                 D-45470 Muelheim/Ruhr               #
                  #                      Germany                        #
                  #                                                     #
                  #                  All rights reserved                #
                  #                        -***-                        #
                  #######################################################


                         Program Version 5.0.1 -  RELEASE  -


 With contributions from (in alphabetic order):
   Daniel Aravena         : Magnetic Suceptibility
   Michael Atanasov       : Ab Initio Ligand Field Theory (pilot matlab implementation)
   Alexander A. Auer      : GIAO ZORA, VPT2 properties, NMR spectrum
   Ute Becker             : Parallelization
   Giovanni Bistoni       : ED, misc. LED, open-shell LED, HFLD
   Martin Brehm           : Molecular dynamics
   Dmytro Bykov           : SCF Hessian
   Vijay G. Chilkuri      : MRCI spin determinant printing, contributions to CSF-ICE
   Dipayan Datta          : RHF DLPNO-CCSD density
   Achintya Kumar Dutta   : EOM-CC, STEOM-CC
   Dmitry Ganyushin       : Spin-Orbit,Spin-Spin,Magnetic field MRCI
   Miquel Garcia          : C-PCM and meta-GGA Hessian, CC/C-PCM, Gaussian charge scheme
   Yang Guo               : DLPNO-NEVPT2, F12-NEVPT2, CIM, IAO-localization
   Andreas Hansen         : Spin unrestricted coupled pair/coupled cluster methods
   Benjamin Helmich-Paris : MC-RPA, TRAH-SCF, COSX integrals
   Lee Huntington         : MR-EOM, pCC
   Robert Izsak           : Overlap fitted RIJCOSX, COSX-SCS-MP3, EOM
   Marcus Kettner         : VPT2
   Christian Kollmar      : KDIIS, OOCD, Brueckner-CCSD(T), CCSD density, CASPT2, CASPT2-K
   Simone Kossmann        : Meta GGA functionals, TD-DFT gradient, OOMP2, MP2 Hessian
   Martin Krupicka        : Initial AUTO-CI
   Lucas Lang             : DCDCAS
   Marvin Lechner         : AUTO-CI (C++ implementation), FIC-MRCC
   Dagmar Lenk            : GEPOL surface, SMD
   Dimitrios Liakos       : Extrapolation schemes; Compound Job, initial MDCI parallelization
   Dimitrios Manganas     : Further ROCIS development; embedding schemes
   Dimitrios Pantazis     : SARC Basis sets
   Anastasios Papadopoulos: AUTO-CI, single reference methods and gradients
   Taras Petrenko         : DFT Hessian,TD-DFT gradient, ASA, ECA, R-Raman, ABS, FL, XAS/XES, NRVS
   Peter Pinski           : DLPNO-MP2, DLPNO-MP2 Gradient
   Christoph Reimann      : Effective Core Potentials
   Marius Retegan         : Local ZFS, SOC
   Christoph Riplinger    : Optimizer, TS searches, QM/MM, DLPNO-CCSD(T), (RO)-DLPNO pert. Triples
   Tobias Risthaus        : Range-separated hybrids, TD-DFT gradient, RPA, STAB
   Michael Roemelt        : Original ROCIS implementation
   Masaaki Saitow         : Open-shell DLPNO-CCSD energy and density
   Barbara Sandhoefer     : DKH picture change effects
   Avijit Sen             : IP-ROCIS
   Kantharuban Sivalingam : CASSCF convergence, NEVPT2, FIC-MRCI
   Bernardo de Souza      : ESD, SOC TD-DFT
   Georgi Stoychev        : AutoAux, RI-MP2 NMR, DLPNO-MP2 response
   Willem Van den Heuvel  : Paramagnetic NMR
   Boris Wezisla          : Elementary symmetry handling
   Frank Wennmohs         : Technical directorship


 We gratefully acknowledge several colleagues who have allowed us to
 interface, adapt or use parts of their codes:
   Stefan Grimme, W. Hujo, H. Kruse, P. Pracht,  : VdW corrections, initial TS optimization,
                  C. Bannwarth, S. Ehlert          DFT functionals, gCP, sTDA/sTD-DF
   Ed Valeev, F. Pavosevic, A. Kumar             : LibInt (2-el integral package), F12 methods
   Garnet Chan, S. Sharma, J. Yang, R. Olivares  : DMRG
   Ulf Ekstrom                                   : XCFun DFT Library
   Mihaly Kallay                                 : mrcc  (arbitrary order and MRCC methods)
   Jiri Pittner, Ondrej Demel                    : Mk-CCSD
   Frank Weinhold                                : gennbo (NPA and NBO analysis)
   Christopher J. Cramer and Donald G. Truhlar   : smd solvation model
   Lars Goerigk                                  : TD-DFT with DH, B97 family of functionals
   V. Asgeirsson, H. Jonsson                     : NEB implementation
   FAccTs GmbH                                   : IRC, NEB, NEB-TS, DLPNO-Multilevel, CI-OPT
                                                   MM, QMMM, 2- and 3-layer-ONIOM, Crystal-QMMM,
                                                   LR-CPCM, SF, NACMEs, symmetry and pop. for TD-DFT,
                                                   nearIR, NL-DFT gradient (VV10), updates on ESD,
                                                   ML-optimized integration grids
   S Lehtola, MJT Oliveira, MAL Marques          : LibXC Library
   Liviu Ungur et al                             : ANISO software


 Your calculation uses the libint2 library for the computation of 2-el integrals
 For citations please refer to: http://libint.valeyev.net

 Your ORCA version has been built with support for libXC version: 5.1.0
 For citations please refer to: https://tddft.org/programs/libxc/

 This ORCA versions uses:
   CBLAS   interface :  Fast vector & matrix operations
   LAPACKE interface :  Fast linear algebra routines
   SCALAPACK package :  Parallel linear algebra routines
   Shared memory     :  Shared parallel matrices
   BLAS/LAPACK       :  OpenBLAS 0.3.15  USE64BITINT DYNAMIC_ARCH NO_AFFINITY SkylakeX SINGLE_THREADED
        Core in use  :  SkylakeX
   Copyright (c) 2011-2014, The OpenBLAS Project




***************************************
The coordinates will be read from file: structure_opt.xyz
***************************************


Your calculation utilizes the atom-pairwise dispersion correction
based on tight binding partial charges (D4)
Cite in your paper:
E.Caldeweyher, C.Bannwarth, S.Grimme, J.Chem.Phys., (2017), 147, 034112.
E.Caldeweyher, S.Ehlert, A.Hansen, H.Neugebauer, S.Grimme, J.Chem.Phys., (2018), in progress.
   

Your calculation utilizes the SMD solvation module
Please cite in your paper:
A.V. Marenich, C.J. Cramer, D.G. Truhlar J. Phys. Chem. B, 113, (2009), 6378 

XCFun DFT library Copyright 2009-2010 Ulf Ekstrom and contributors.
See http://admol.org/xcfun for more information.
This is free software; see the source code for copying conditions.
There is ABSOLUTELY NO WARRANTY; not even for MERCHANTABILITY or FITNESS FOR A PARTICULAR PURPOSE.
For details see the documentation.
Scientific users of this library should cite U. Ekstrom, L. Visscher, R. Bast, A. J. Thorvaldsen and K. Ruud;
J.Chem.Theor.Comp. 2010, DOI: 10.1021/ct100117s
XCFun Version 0.99 

Your calculation utilizes a Nudged-Elastic-Band implementation
 by V.Asgeirsson, C. Riplinger & H. Jonsson
Please cite in your paper:
 V. Asgeirsson et al., in prep. (2019)
   

================================================================================

----- Orbital basis set information -----
Your calculation utilizes the basis: 6-311++G**
   H, Li - Ne  : R. Krishnan, J. S. Binkley, R. Seeger and J. A. Pople, J. Chem. Phys. 72, 650 (1980).
   Na - Ar     : A. D. McLean and G. S. Chandler J. Chem. Phys. 72, 5639, (1980).
   K  - Ca     : J.-P. Blaudeau, M. P. McGrath, L. A. Curtiss and L. Radom, J. Chem. Phys. 107, 5016 (1997).
   Ga - Kr     : L. A. Curtiss, M. P. McGrath, J.-P. Blandeau, N. E. Davis, R. C. Binning and L. Radom, J. Chem. Phys. 103, 6104 (1995).
   Pol./Diff.
   H, Li - Cl  : T. Clark, J. Chandrasekhar and P. v. R. Schleyer, J. Comp. Chem. 4, 294 (1983).
   H - Ne      : M. J. Frisch, J. A. Pople and J. S. Binkley, J. Chem. Phys. 80, 3265 (1984).

----- AuxJ basis set information -----
Your calculation utilizes the auxiliary basis: def2/J
   F. Weigend, Phys. Chem. Chem. Phys. 8, 1057 (2006).

================================================================================
                                        WARNINGS
                       Please study these warnings very carefully!
================================================================================


WARNING: The environment variable RSH_COMMAND is not set!
  ===> : All Displacements for the Numerical Hessian calculation
         will be started on localhost

WARNING: Geometry Optimization
  ===> : Switching off AutoStart
         For restart on a previous wavefunction, please use MOREAD

INFO   : the flag for use of the SHARK integral package has been found!

================================================================================
                                       INPUT FILE
================================================================================
NAME = TS_search_opt_without_h.inp
|  1> !wb97x 6-311++G** D4 NEB-TS OPT NUMFREQ CPCM(WATER)
|  2> %maxcore  3500
|  3> %pal
|  4> nprocs 24
|  5> end
|  6> %cpcm
|  7> smd true
|  8> SMDsolvent "water"
|  9> end
| 10> %geom
| 11> MaxIter 1000   # allows for n optimization cycles
| 12> EnforceStrictConvergence False
| 13> end
| 14> %NEB NEB_END_XYZFILE "2f3_prod_opt.xyz" END
| 15> * XYZfile -1 1 structure_opt.xyz
| 16> 
| 17>                          ****END OF INPUT****
================================================================================


------------------------------------------------------------------------------- 
                         Nudged Elastic Band Calculation                       
------------------------------------------------------------------------------- 

Number of images (incl. end points)     ....  10
Number of intermediate images           ....  8
Number of optimized images              ....  8
Optimization of end points before NEB   ....  NO
Use existing gbw files for MO input     ....  NO
Number of atoms                         ....  18
Number of (active) degrees of freedom   ....  54
Constrained atoms                       ....  None

-----------------------------------------
  REACTANT (ANGSTROEM)
-----------------------------------------
C      0.003875     0.002967     1.850986 
N      1.125896    -0.186058     2.474854 
C      1.197469    -0.200871     3.805726 
C      0.089659    -0.019531     4.602737 
C     -1.116809     0.183449     3.964146 
C     -1.189347     0.198765     2.580600 
N     -2.452201     0.412058     1.921141 
O     -2.535085     0.430089     0.676049 
O     -3.466406     0.578936     2.573273 
F      0.006168     0.007326     0.500995 
H      2.182543    -0.364296     4.228909 
H      0.157897    -0.035026     5.682385 
H     -2.012752     0.330695     4.543763 
C     -2.585676    -7.962552     2.720878 
H     -2.404346    -8.699408     1.933406 
H     -3.653177    -7.947176     2.957139 
H     -2.027187    -8.253535     3.614965 
S     -2.054522    -6.329832     2.170049 

-----------------------------------------
  PRODUCT (ANGSTROEM)
-----------------------------------------
C     -0.006655     0.014080     1.789576 
N      1.150760    -0.163122     2.425247 
C      1.177726    -0.139964     3.759145 
C      0.054738     0.057580     4.546999 
C     -1.158972     0.233636     3.911162 
C     -1.178720     0.217442     2.525234 
N     -2.493686     0.427964     1.904940 
O     -2.584738     1.164910     0.947848 
O     -3.439094    -0.145340     2.414303 
F      3.139899     2.499865     0.919104 
H      2.152169    -0.281946     4.215772 
H      0.130494     0.071637     5.627108 
H     -2.077395     0.389730     4.465403 
C      0.049505     1.625975    -0.482258 
H     -0.875798     2.113075    -0.187252 
H      0.131238     1.624494    -1.570971 
H      0.921382     2.132605    -0.060262 
S      0.064147    -0.119619     0.009902 



----------------------
NEB settings
----------------------
Method type                             ....  climbing image
Threshold for climbing image            ....  2.00e-02 Eh/Bohr 
Free endpoints                          ....  off 
Tangent type                            ....  improved 
Number of intermediate images           ....  8 
Number of images free to move           ....  8 
Spring type for image distribution      ....  distance between adjacent images 
Spring constant                         ....  energy weighted (0.0100 -to- 0.1000) Eh/Bohr^2 
Spring force perp. to the path          ....  none 
Generation of initial path              ....  image dependent pair potential 
Initial path via TS guess               ....  off 

Minimization of RMSD: Rotation          ....  always 
Minimization of RMSD: Translation type  ....  centroid 
Center fixed to origin                  ....  true 
Remove external force                   ....  true 

Reparametrization of the path           ....  off 
Convergence thresholds:
Convergence monitored for               ....  all images
Scaling factor                          ....  10.00

Convergence parameters for regular images:
               Max(|Fp|)                ....  2.00e-02 Eh/Bohr
               RMS(Fp)                  ....  1.00e-02 Eh/Bohr

Convergence parameters for climbing image:
               Max(|F|)                 ....  2.00e-03 Eh/Bohr
               RMS(F)                   ....  1.00e-03 Eh/Bohr
Optimization method:
Method                                  ....  L-BFGS
Max. iterations                         ....  500 
Step size                               ....  1.00 
Maximum allowed step size               ....  0.10 Bohr

LBFGS parameters: 
               Memory                   ....  20 
               Initial step size        ....  0.0010 
               Estimate curvature       ....  YES 
               Reset on maxmove         ....  YES 
               Reparam. on reset        ....  NO 
Generation of  the initial path:
Minimize RMSD between reactant and product configurations     .... done
       RMSD before minimization         ....  6.0559 Bohr
       RMSD after minimization          ....  3.0914 Bohr
Performing linear interpolation         ....  done
Interpolation using                     ....  IDPP (Image Dependent Pair Potential)
IDPP-Settings:
       Remove global transl. and rot.   ...   true
       Convergence tolerance            ....  0.0100 1/Ang.^3
       Max. numer of iterations         ....    7000
       Spring constant                  ....  1.0000 1/Ang.^4
       Time step                        ....  0.0100 fs
       Max. movement per iteration      ....  0.0500 Ang.
       Full print                       ....  false 
idpp initial path generation successfully converged in 120 iterations
Displacement along initial path:             24.2756 Bohr
Writing initial trajectory to file      ....  TS_search_opt_without_h_initial_path_trj.xyz



----------------------
NEB OPTIMIZATION      
----------------------

Following output files will be written:
Energy profile during opt. written to    ....  TS_search_opt_without_h.interp
Optimization log-file                    ....  TS_search_opt_without_h.NEB.log
Current trajectory will be written to    ....  TS_search_opt_without_h_MEP_trj.xyz
       and to allxyz file                ....  TS_search_opt_without_h_MEP.allxyz
       and individual images to xyz file ....  TS_search_opt_without_h_im{NIm}.xyz
Trajectory history will be written to    ....  TS_search_opt_without_h_MEP_ALL_trj.xyz
Converged CI will be written to          ....  TS_search_opt_without_h_NEB-CI_converged.xyz
Converged TS will be written to          ....  TS_search_opt_without_h_NEB-TS_converged.xyz

Single point energy and gradient calculation of reactant and
product configurations (have to be performed only once)
Properties of fixed NEB end points:
               Reactant:
                         E               ....   -990.266422 Eh
                         RMS(F)          ....      0.011459 Eh/Bohr
                         MAX(|F|)        ....      0.042621 Eh/Bohr
      Warning: Reactant seems to be less converged than convergence tolerances.
               You might want to use free end NEB or preopt_ends true.
               Product:
                         E               ....   -990.305417 Eh
                         RMS(F)          ....      0.001280 Eh/Bohr
                         MAX(|F|)        ....      0.004367 Eh/Bohr



Starting iterations:

Optim.  Iteration  HEI  E(HEI)-E(0)  max(|Fp|)   RMS(Fp)    dS
Switch-on CI threshold               0.020000 
   LBFGS     0      4    0.178162    0.106053   0.018488  24.2756       
   LBFGS     1      4    0.156638    0.078219   0.009933  24.2666       
   LBFGS     2      4    0.156548    0.096148   0.012347  24.2588       
   LBFGS     3      4    0.155073    0.068053   0.009806  24.2453       
   LBFGS     4      4    0.157428    0.092324   0.012260  24.2455       
   LBFGS     5      4    0.150700    0.082233   0.009275  24.2538       
   LBFGS     6      4    0.151509    0.099695   0.011871  24.2615       
   LBFGS     7      4    0.151426    0.103266   0.012850  24.2807       
   LBFGS     8      4    0.147485    0.056092   0.007005  24.2798       
   LBFGS     9      4    0.147963    0.060230   0.008365  24.2900       
   LBFGS    10      4    0.149917    0.075519   0.010240  24.3182       
   LBFGS    11      4    0.151527    0.121591   0.011590  24.3454       
   LBFGS    12      4    0.145465    0.047787   0.008411  24.3579       
   LBFGS    13      4    0.144153    0.047432   0.008022  24.3937       
   LBFGS    14      4    0.143789    0.050942   0.008058  24.4097       
   LBFGS    15      4    0.144014    0.053697   0.009156  24.4405       
   LBFGS    16      4    0.143812    0.061034   0.009878  24.4881       
   LBFGS    17      4    0.143040    0.051513   0.007679  24.5144       
   LBFGS    18      4    0.142871    0.033120   0.006201  24.5312       
   LBFGS    19      4    0.142605    0.030718   0.005742  24.5900       
   LBFGS    20      4    0.142826    0.045169   0.007529  24.6363       
   LBFGS    21      4    0.142723    0.050410   0.008066  24.7049       
   LBFGS    22      4    0.142556    0.054828   0.008292  24.7968       
   LBFGS    23      4    0.142177    0.028138   0.006099  24.8279       
   LBFGS    24      4    0.141504    0.025642   0.004536  24.8484       
   LBFGS    25      4    0.141580    0.033151   0.005225  24.9380       
   LBFGS    26      4    0.142368    0.051269   0.005563  24.9770       
   LBFGS    27      4    0.140995    0.026569   0.004974  25.0146       
   LBFGS    28      4    0.140449    0.034714   0.005296  25.1169       
   LBFGS    29      4    0.140220    0.026729   0.004864  25.1496       
   LBFGS    30      4    0.140002    0.028007   0.004163  25.1811       
   LBFGS    31      4    0.139591    0.028394   0.004548  25.2886       
   LBFGS    32      4    0.139430    0.019138   0.003618  25.3115       

Image  4 will be converted to a climbing image in the next iteration (max(|Fp|) < 0.0200) 

Optim.  Iteration  CI   E(CI)-E(0)   max(|Fp|)   RMS(Fp)    dS     max(|FCI|)   RMS(FCI)
Convergence thresholds               0.020000   0.010000            0.002000    0.001000 
   LBFGS    33      4    0.139212    0.017920   0.002511  25.3217    0.009577    0.001758       
   LBFGS    34      4    0.139163    0.026128   0.004527  25.3702    0.019585    0.004711       
   LBFGS    35      4    0.139044    0.048896   0.007677  25.4841    0.034926    0.007901       
   LBFGS    36      4    0.138227    0.015192   0.002457  25.4892    0.013915    0.003126       
   LBFGS    37      4    0.138034    0.014677   0.002422  25.5019    0.009802    0.002018       
   LBFGS    38      4    0.137114    0.023563   0.003712  25.6357    0.010430    0.002996       
   LBFGS    39      4    0.137029    0.012182   0.002986  25.6537    0.020185    0.004255       
   LBFGS    40      4    0.136577    0.019073   0.002922  25.6738    0.010246    0.002014       

Possible intermediate minimum found at image(s): 1 
  => have a look at the .interp file.
  => it is often a good idea to divide the path calculation into smaller fragments. 

   LBFGS    41      4    0.135922    0.038644   0.004899  25.8103    0.029647    0.007105       
   LBFGS    42      4    0.135373    0.007885   0.002057  25.8194    0.022459    0.004770       
   LBFGS    43      4    0.134911    0.007248   0.001963  25.8317    0.010891    0.002301       
   LBFGS    44      4    0.134296    0.021520   0.003555  25.9040    0.019348    0.004887       
   LBFGS    45      4    0.133778    0.034130   0.004993  26.0236    0.039132    0.009047       
   LBFGS    46      4    0.132925    0.010961   0.001967  26.0190    0.029708    0.006367       
   LBFGS    47      4    0.132068    0.007712   0.001742  26.0195    0.011867    0.002487       
   LBFGS    48      4    0.131679    0.013976   0.002311  26.0248    0.011730    0.003277       
   LBFGS    49      4    0.131489    0.042580   0.004772  26.0706    0.047227    0.011229       
   LBFGS    50      4    0.131146    0.050447   0.006145  26.1574    0.069690    0.016300       
   LBFGS    51      4    0.127585    0.016061   0.002613  26.1666    0.030954    0.007258       
   LBFGS    52      4    0.126459    0.008402   0.001784  26.1831    0.015636    0.003889       
   LBFGS    53      4    0.125741    0.008462   0.001921  26.2159    0.013167    0.002744       
   LBFGS    54      4    0.124851    0.014648   0.002740  26.2671    0.013214    0.004482       
   LBFGS    55      4    0.122726    0.018639   0.002943  26.3606    0.018682    0.006732       
   LBFGS    56      4    0.122498    0.010365   0.001940  26.3150    0.038053    0.008596       
   LBFGS    57      4    0.120811    0.010147   0.002062  26.2888    0.013236    0.003548       
   LBFGS    58      4    0.120101    0.009509   0.002104  26.2721    0.015310    0.004608       
   LBFGS    59      4    0.118238    0.013246   0.002730  26.2750    0.026989    0.007082       
   LBFGS    60      4    0.115926    0.017458   0.003242  26.3282    0.045909    0.010814       
   LBFGS    61      4    0.115425    0.015404   0.002401  26.3676    0.040724    0.009798       
   LBFGS    62      4    0.113593    0.012304   0.002077  26.3950    0.023713    0.005491       
   LBFGS    63      4    0.111814    0.010889   0.002176  26.4437    0.012531    0.003150       
   LBFGS    64      4    0.110630    0.013807   0.002554  26.4789    0.019023    0.005590       
   LBFGS    65      4    0.108122    0.029769   0.003908  26.5489    0.030916    0.008572       
   LBFGS    66      4    0.106811    0.022970   0.002994  26.5305    0.015893    0.005065       
   LBFGS    67      4    0.106440    0.018411   0.002418  26.5154    0.019510    0.005605       
   LBFGS    68      4    0.102953    0.018629   0.003246  26.4810    0.011948    0.004347       
   LBFGS    69      4    0.102317    0.026826   0.003752  26.5062    0.013835    0.004813       
   LBFGS    70      4    0.101580    0.016197   0.002682  26.5216    0.012228    0.004087       
   LBFGS    71      4    0.098409    0.017788   0.002691  26.5897    0.011880    0.003381       

Possible intermediate minimum found at image(s): 1 
  => have a look at the .interp file.
  => it is often a good idea to divide the path calculation into smaller fragments. 

   LBFGS    72      4    0.097304    0.041780   0.004426  26.5738    0.014452    0.005309       
   LBFGS    73      4    0.095628    0.025760   0.003081  26.5713    0.012046    0.003726       
   LBFGS    74      4    0.091884    0.021933   0.003099  26.6081    0.011702    0.003417       
   LBFGS    75      4    0.087455    0.038414   0.004343  26.6842    0.011013    0.004597       
   LBFGS    76      4    0.086644    0.037539   0.004461  26.7114    0.014729    0.005456       
   LBFGS    77      4    0.085497    0.023771   0.002965  26.7309    0.011185    0.003739       
   LBFGS    78      4    0.082487    0.020105   0.002970  26.8005    0.010968    0.003750       
   LBFGS    79      4    0.078725    0.031784   0.004352  26.8934    0.014318    0.005434       
   LBFGS    80      4    0.073837    0.038702   0.005368  27.0187    0.017249    0.006299       
   LBFGS    81      4    0.072670    0.026467   0.003843  27.0219    0.012158    0.005151       
   LBFGS    82      4    0.071366    0.023171   0.003507  27.0344    0.012590    0.005193       
   LBFGS    83      4    0.065722    0.020351   0.003795  27.1207    0.014275    0.004879       
   LBFGS    84      4    0.064284    0.022604   0.003595  27.1248    0.013861    0.004807       
   LBFGS    85      4    0.062861    0.018465   0.003327  27.1355    0.014071    0.004836       
   LBFGS    86      4    0.055396    0.017219   0.003221  27.2318    0.015327    0.004837       
   LBFGS    87      4    0.052089    0.039993   0.006018  27.3236    0.017453    0.006356       
   LBFGS    88      4    0.049347    0.019754   0.003138  27.3775    0.017407    0.005009       
   LBFGS    89      4    0.042351    0.043741   0.005465  27.5687    0.017092    0.005365       
   LBFGS    90      4    0.040989    0.026468   0.004181  27.5434    0.016738    0.005334       
   LBFGS    91      4    0.039588    0.017907   0.002777  27.5525    0.015734    0.004637       
   LBFGS    92      4    0.036124    0.028066   0.003295  27.6189    0.013637    0.004436       
   LBFGS    93      4    0.030303    0.032733   0.004877  27.7939    0.011016    0.004757       
   LBFGS    94      4    0.029001    0.036799   0.005569  27.8272    0.014546    0.005510       
   LBFGS    95      4    0.027835    0.014962   0.002558  27.8553    0.013018    0.004149       
   LBFGS    96      4    0.025164    0.028570   0.004601  27.9742    0.012993    0.004386       
   LBFGS    97      4    0.023879    0.022872   0.003644  28.0154    0.012822    0.004042       
   LBFGS    98      4    0.018800    0.013166   0.002566  28.2311    0.011635    0.003310       
   LBFGS    99      4    0.017916    0.032497   0.004231  28.3055    0.008961    0.003793       
   LBFGS   100      3    0.018545    0.019217   0.003029  28.3812    0.032295    0.008189       
   LBFGS   101      3    0.020338    0.032733   0.004758  28.4810    0.058252    0.014614       
   LBFGS   102      3    0.018358    0.029727   0.004038  28.5041    0.044592    0.011832       

Possible intermediate minimum found at image(s): 1 
  => have a look at the .interp file.
  => it is often a good idea to divide the path calculation into smaller fragments. 

   LBFGS   103      3    0.016038    0.019155   0.002668  28.5262    0.027862    0.007077       
   LBFGS   104      3    0.014857    0.023836   0.002736  28.6098    0.012852    0.004421       
   LBFGS   105      3    0.016417    0.041730   0.005414  28.7286    0.035849    0.010703       
   LBFGS   106      3    0.015372    0.032166   0.004241  28.7705    0.027798    0.008350       
   LBFGS   107      3    0.014030    0.012633   0.002231  28.9599    0.014607    0.004659       
   LBFGS   108      3    0.014431    0.022825   0.003126  29.0097    0.027362    0.007571       
   LBFGS   109      3    0.014779    0.027341   0.003587  29.0727    0.031279    0.009183       
   LBFGS   110      3    0.014929    0.032158   0.004190  29.2445    0.032712    0.010452       
   LBFGS   111      3    0.012946    0.012136   0.002335  29.2554    0.017357    0.004676       
   LBFGS   112      3    0.012603    0.009889   0.001806  29.2591    0.011421    0.003133       
   LBFGS   113      3    0.012753    0.018950   0.002886  29.3670    0.020196    0.005859       
   LBFGS   114      3    0.013457    0.033438   0.004206  29.4804    0.031955    0.009238       
   LBFGS   115      3    0.011780    0.022585   0.002703  29.5476    0.009323    0.003864       
   LBFGS   116      3    0.011652    0.017112   0.002109  29.5418    0.009292    0.003324       
   LBFGS   117      3    0.011343    0.016598   0.002104  29.5641    0.004167    0.001480       
   LBFGS   118      3    0.011077    0.049758   0.004675  29.7527    0.004096    0.001674       
   LBFGS   119      3    0.010742    0.050502   0.004281  29.9760    0.003993    0.001570       
   LBFGS   120      3    0.010753    0.012842   0.001648  29.9079    0.004008    0.001292       
   LBFGS   121      3    0.010814    0.014232   0.001830  29.8092    0.004028    0.001337       
   LBFGS   122      3    0.010602    0.037291   0.003008  29.9148    0.003973    0.001280       
   LBFGS   123      3    0.010340    0.064279   0.005064  30.0882    0.004030    0.001664       
   LBFGS   124      3    0.010340    0.064279   0.005063  30.0882    0.004030    0.001664       
   LBFGS   125      3    0.010178    0.048488   0.004161  30.1457    0.003943    0.001304       
   LBFGS   126      3    0.010125    0.013321   0.001595  30.1355    0.003916    0.001239       
   LBFGS   127      3    0.010011    0.046980   0.003954  30.1241    0.003883    0.001291       
   LBFGS   128      3    0.009910    0.020430   0.001876  30.1447    0.003873    0.001223       
   LBFGS   129      3    0.009433    0.075112   0.006979  30.2666    0.003815    0.001504       
   LBFGS   130      3    0.009326    0.072813   0.006722  30.3083    0.003786    0.001562       
   LBFGS   131      3    0.008753    0.034769   0.003540  30.5589    0.003692    0.001494       
   LBFGS   132      3    0.008624    0.052668   0.004842  30.5676    0.003739    0.001256       
   LBFGS   133      3    0.008589    0.012400   0.001465  30.5749    0.003745    0.001164       

Possible intermediate minimum found at image(s): 1 
  => have a look at the .interp file.
  => it is often a good idea to divide the path calculation into smaller fragments. 

   LBFGS   134      3    0.008468    0.044272   0.004132  30.6135    0.003767    0.001194       
   LBFGS   135      3    0.008359    0.029851   0.003143  30.6516    0.003743    0.001215       
   LBFGS   136      3    0.008359    0.029850   0.003143  30.6516    0.003742    0.001215       
   LBFGS   137      3    0.008269    0.040446   0.003806  30.6678    0.003598    0.001132       
   LBFGS   138      3    0.008233    0.011549   0.001345  30.6780    0.003577    0.001102       
   LBFGS   139      3    0.007995    0.096182   0.008428  30.7868    0.003359    0.001186       
   LBFGS   140      3    0.008153    0.016728   0.001800  30.7075    0.003513    0.001089       
   LBFGS   141      3    0.008124    0.015445   0.001695  30.7178    0.003484    0.001088       
   LBFGS   142      3    0.007761    0.012120   0.001373  30.8476    0.003230    0.001045       
   LBFGS   143      3    0.007578    0.061408   0.005296  30.9225    0.003196    0.001072       
   LBFGS   144      3    0.007689    0.009469   0.001019  30.8770    0.003215    0.001009       
   LBFGS   145      3    0.007648    0.011876   0.001160  30.8945    0.003202    0.001000       
   LBFGS   146      3    0.007279    0.005852   0.001002  31.0666    0.003075    0.000971       
   LBFGS   147      3    0.006993    0.063618   0.005993  31.2695    0.002996    0.001207       
   LBFGS   148      3    0.007193    0.010180   0.001090  31.1203    0.003054    0.000923       
   LBFGS   149      3    0.007148    0.011790   0.001209  31.1502    0.003042    0.000919       
   LBFGS   150      3    0.006774    0.012032   0.001387  31.4119    0.002927    0.000949       
   LBFGS   151      3    0.006671    0.035365   0.003027  31.4780    0.002888    0.000865       
   LBFGS   152      3    0.006668    0.016235   0.001451  31.4841    0.002888    0.000850       
   LBFGS   153      3    0.006624    0.009002   0.000984  31.5183    0.002870    0.000855       
   LBFGS   154      3    0.006291    0.013204   0.001522  31.8258    0.002959    0.001182       
   LBFGS   155      3    0.006157    0.046554   0.004173  31.9281    0.002759    0.001250       
   LBFGS   156      3    0.006114    0.004142   0.000868  31.9398    0.002705    0.000866       
   LBFGS   157      3    0.006085    0.003504   0.000782  31.9574    0.002693    0.000815       
   LBFGS   158      3    0.005765    0.011819   0.001455  32.2267    0.002637    0.001100       
   LBFGS   159      3    0.005658    0.013823   0.002252  32.2934    0.002553    0.001041       
   LBFGS   160      3    0.005596    0.013953   0.001717  32.3821    0.002894    0.001340       
   LBFGS   161      3    0.005365    0.016891   0.002733  32.6476    0.003553    0.001553       
   LBFGS   162      3    0.005021    0.018158   0.003271  33.0134    0.003489    0.001502       
   LBFGS   163      3    0.004906    0.013044   0.002186  33.0374    0.002265    0.000905       
   LBFGS   164      3    0.004862    0.007694   0.001273  33.0650    0.002330    0.000725       

Possible intermediate minimum found at image(s): 1 
  => have a look at the .interp file.
  => it is often a good idea to divide the path calculation into smaller fragments. 

   LBFGS   165      3    0.004781    0.008642   0.001161  33.1825    0.002417    0.000891       
   LBFGS   166      3    0.004667    0.013032   0.001940  33.3488    0.002370    0.001025       
   LBFGS   167      3    0.004358    0.018581   0.002965  33.8129    0.002356    0.001147       
   LBFGS   168      3    0.004278    0.017467   0.002654  33.8399    0.002053    0.000659       
   LBFGS   169      3    0.004246    0.009341   0.001448  33.8805    0.002055    0.000637       
   LBFGS   170      3    0.004174    0.004943   0.000919  33.9856    0.002022    0.000661       
   LBFGS   171      3    0.004076    0.011871   0.001471  34.1196    0.001976    0.000605       

                                .--------------------.
          ----------------------| CI-NEB convergence |-------------------------
          Item                value                   Tolerance       Converged
          ---------------------------------------------------------------------
          RMS(Fp)             0.0014713253            0.0100000000      YES
          MAX(|Fp|)           0.0118711788            0.0200000000      YES
          RMS(FCI)            0.0006053361            0.0010000000      YES
          MAX(|FCI|)          0.0019761201            0.0020000000      YES
          ---------------------------------------------------------------------

The elastic band and climbing image have converged successfully to a MEP in 171 iterations!


                    *********************H U R R A Y*********************
                    ***        THE NEB OPTIMIZATION HAS CONVERGED     ***
                    *****************************************************



---------------------------------------------------------------
                         PATH SUMMARY              
---------------------------------------------------------------
All forces in Eh/Bohr.

Image Dist.(Ang.)    E(Eh)   dE(kcal/mol)  max(|Fp|)  RMS(Fp)
  0     0.000    -990.26642      0.00       0.04266   0.01146
  1     4.117    -990.27443     -5.03       0.01057   0.00211
  2     8.175    -990.27054     -2.58       0.01187   0.00311
  3     8.584    -990.26235      2.56       0.00200   0.00060 <= CI
  4     8.680    -990.26351      1.83       0.00238   0.00099
  5     8.942    -990.27331     -4.32       0.00319   0.00125
  6    10.334    -990.28418    -11.14       0.00407   0.00142
  7    12.243    -990.30030    -21.26       0.00202   0.00079
  8    14.945    -990.30350    -23.27       0.00158   0.00045
  9    18.055    -990.30542    -24.47       0.00408   0.00126

Straight line distance between images along the path:
        D( 0- 1) =   4.1165 Ang.
        D( 1- 2) =   4.0582 Ang.
        D( 2- 3) =   0.4097 Ang.
        D( 3- 4) =   0.0959 Ang.
        D( 4- 5) =   0.2618 Ang.
        D( 5- 6) =   1.3922 Ang.
        D( 6- 7) =   1.9091 Ang.
        D( 7- 8) =   2.7012 Ang.
        D( 8- 9) =   3.1108 Ang.

---------------------------------------------------------------
               INFORMATION ABOUT SADDLE POINT     
---------------------------------------------------------------

Climbing image                            ....  3 
Energy                                    ....  -990.26234611 Eh
Max. abs. force                           ....  1.9761e-03 Eh/Bohr

-----------------------------------------
  SADDLE POINT (ANGSTROEM)
-----------------------------------------
C      0.582978     0.067225    -0.481043 
N      1.788872     0.067736     0.105312 
C      2.059135     0.982903     1.023157 
C      1.203336     2.026640     1.378786 
C     -0.017699     2.086010     0.741133 
C     -0.334244     1.130950    -0.218653 
N     -1.628116     1.173035    -0.818922 
O     -1.838952     0.520967    -1.831885 
O     -2.501440     1.858684    -0.287701 
F      0.622994    -0.475770    -1.729266 
H      3.040019     0.913034     1.485216 
H      1.510607     2.780938     2.091360 
H     -0.726555     2.880034     0.945679 
C     -0.748112    -3.302885    -0.560394 
H     -0.974907    -3.083115    -1.608051 
H     -1.545226    -3.952227    -0.184718 
H      0.183182    -3.874773    -0.524440 
S     -0.675870    -1.799386     0.474429 

-----------------------------------------
  FORCES (Eh/Bohr)
-----------------------------------------
C      0.000001     0.000208    -0.000699 
N     -0.000085    -0.000027    -0.000987 
C      0.000018    -0.000373    -0.000532 
C     -0.000567    -0.000532    -0.000005 
C     -0.000269    -0.000491    -0.000265 
C      0.000174    -0.000339    -0.000602 
N      0.000500    -0.000035    -0.000192 
O     -0.000352    -0.000375     0.000320 
O      0.000124    -0.000014    -0.001191 
F     -0.000723    -0.000833     0.000708 
H      0.000403    -0.000235    -0.000304 
H     -0.000269    -0.000820     0.000871 
H     -0.000139    -0.000488     0.000314 
C      0.000242     0.000911     0.000465 
H      0.000418     0.001976     0.000646 
H      0.000406     0.000188    -0.000453 
H      0.000452     0.001183     0.000002 
S     -0.000164    -0.000036     0.001655 

-----------------------------------------
  UNIT TANGENT
-----------------------------------------
C     -0.298865    -0.477062     0.255764 
N     -0.094172    -0.213165     0.159695 
C     -0.052316    -0.094679    -0.014869 
C     -0.045854    -0.027322    -0.009212 
C     -0.007645    -0.036936     0.005573 
C     -0.093167    -0.100765     0.040205 
N      0.003790    -0.020752     0.054900 
O     -0.044879    -0.052089     0.039034 
O     -0.020949     0.067921    -0.031990 
F      0.055803     0.001563    -0.066650 
H     -0.006178    -0.000752    -0.082638 
H      0.011349    -0.001438    -0.040546 
H      0.025256     0.014157    -0.058485 
C      0.116113     0.170229    -0.046757 
H      0.022627     0.038620    -0.043736 
H      0.070907     0.287220     0.115482 
H      0.047322     0.072938    -0.006349 
S      0.310859     0.372314    -0.269422 
 => Unit tangent is an approximation to the TS mode at the saddle point

Next a TS optimization is performed on the CI from the NEB run.

         *************************************************************
         *                       TS OPTIMIZATION                     *
         *************************************************************


Following output files will be written:
Converged TS will be written to          ....  TS_search_opt_without_h_NEB-TS_converged.xyz
                                         ....  TS_search_opt_without_h.xyz
Current trajectory will be written to    ....  TS_search_opt_without_h_trj.xyz
Initial Hessian will be stored in        ....  TS_search_opt_without_h.appr.hess
Geometry optimization settings:
Update method            Update   .... Bofill
Choice of coordinates    CoordSys .... Z-matrix Internals
Initial Hessian          InHess   .... Read

Convergence Tolerances:
Energy Change            TolE     ....  5.0000e-06 Eh
Max. Gradient            TolMAXG  ....  3.0000e-04 Eh/bohr
RMS Gradient             TolRMSG  ....  1.0000e-04 Eh/bohr
Max. Displacement        TolMAXD  ....  4.0000e-03 bohr
RMS Displacement         TolRMSD  ....  2.0000e-03 bohr
Strict Convergence                ....  False
------------------------------------------------------------------------------
                        ORCA OPTIMIZATION COORDINATE SETUP
------------------------------------------------------------------------------

The optimization will be done in new redundant internal coordinates
Making redundant internal coordinates   ...  (new redundants) done
Following TS mode number                ...     0
TS-active-atoms for coordinate setup... 0 15 17 
Evaluating the initial hessian          ... (Reading Exact Hessian)...  
InHessName: TS_search_opt_without_h.appr.hess	The file <TS_search_opt_without_h.appr.hess> is opened as a .hess file
done
done
Diagonalizing the Hessian               .... done
Dimension of the hessian                .... 156
Lowest eigenvalues of the non projected Hessian:
 -0.007977204 -0.000000000 -0.000000000 -0.000000000 -0.000000000
done
Evaluating the coordinates              ...  done
Calculating the B-matrix                .... done
Calculating the G-matrix                .... done
Diagonalizing the G-matrix              .... done
The first mode is                       ....  108
The number of degrees of freedom        ....   48

    -----------------------------------------------------------------
                    Redundant Internal Coordinates


    -----------------------------------------------------------------
         Definition                    Initial Value    d2E/dq (diagonal element)
    -----------------------------------------------------------------
      1. B(N   1,C   0)                  1.3409         0.205802   
      2. B(C   2,C   0)                  2.2979         0.122133   
      3. B(C   2,N   1)                  1.3240         0.326197   
      4. B(C   3,C   2)                  1.3958         0.446387   
      5. B(C   3,C   0)                  2.7718         0.100346   
      6. B(C   4,C   0)                  2.4352         0.106572   
      7. B(C   4,C   3)                  1.3788         0.494241   
      8. B(C   5,C   4)                  1.3905         0.293038   
      9. B(C   5,C   0)                  1.4289         0.141528   
     10. B(N   6,C   0)                  2.4952         0.086715   
     11. B(N   6,C   5)                  1.4270         0.263383   
     12. B(O   7,C   0)                  2.8101         0.065773   
     13. B(O   7,N   6)                  1.2230         0.858389   
     14. B(O   8,N   6)                  1.2309         0.897570   
     15. B(F   9,C   0)                  1.3618         0.317169   
     16. B(H  10,C   2)                  1.0865         0.365277   
     17. B(H  11,C   3)                  1.0822         0.370945   
     18. B(H  12,C   4)                  1.0839         0.368399   
     19. B(H  14,C  13)                  1.0942         0.251742   
     20. B(H  14,F   9)                  3.0604         0.030725   
     21. B(H  15,C  13)                  1.0946         0.291669   
     22. B(H  16,C  13)                  1.0935         0.288064   
     23. B(S  17,H  15)                  2.4135         0.080367   
     24. B(S  17,H  14)                  2.4646         0.063744   
     25. B(S  17,N   6)                  3.3786         0.026671   
     26. B(S  17,F   9)                  2.8802         0.056689   
     27. B(S  17,C   5)                  3.0305         0.039990   
     28. B(S  17,N   1)                  3.1141         0.066608   
     29. B(S  17,C   0)                  2.4458         0.002646   
     30. B(S  17,H  16)                  2.4582         0.065766   
     31. B(S  17,C  13)                  1.8266         0.137114   
     32. A(N   1,C   0,F   9)          111.9960         0.012379   
     33. A(F   9,C   0,S  17)           93.9504         0.007784   
     34. A(C   5,C   0,S  17)           99.5569         0.006238   
     35. A(N   1,C   0,S  17)          106.9982         0.009283   
     36. A(C   5,C   0,F   9)          118.9483         0.012364   
     37. A(N   1,C   0,C   5)          119.7826         0.020473   
     38. A(C   0,N   1,S  17)           48.6849         0.004536   
     39. A(C   2,N   1,S  17)          119.5923         0.023078   
     40. A(C   0,N   1,C   2)          119.1421         0.032693   
     41. A(C   3,C   2,H  10)          119.5545         0.193858   
     42. A(N   1,C   2,C   3)          124.6342         0.061872   
     43. A(N   1,C   2,H  10)          115.7623         0.194568   
     44. A(C   2,C   3,C   4)          117.2158         0.065383   
     45. A(C   4,C   3,H  11)          121.7324         0.193887   
     46. A(C   2,C   3,H  11)          120.9895         0.193258   
     47. A(C   3,C   4,C   5)          119.4223         0.055532   
     48. A(C   5,C   4,H  12)          118.9825         0.191392   
     49. A(C   3,C   4,H  12)          121.5634         0.191602   
     50. A(C   0,C   5,N   6)          121.7870         0.036254   
     51. A(C   0,C   5,C   4)          119.4683         0.025319   
     52. A(C   4,C   5,S  17)          122.1367         0.015913   
     53. A(N   6,C   5,S  17)           91.2898         0.017102   
     54. A(C   0,C   5,S  17)           52.7361         0.002758   
     55. A(C   4,C   5,N   6)          118.4582         0.050581   
     56. A(C   5,N   6,O   8)          118.5698         0.246136   
     57. A(O   7,N   6,O   8)          122.1509         0.253535   
     58. A(C   5,N   6,O   7)          119.2754         0.079297   
     59. A(C   0,F   9,S  17)           57.9050         0.004919   
     60. A(H  16,C  13,S  17)          112.2207         0.093768   
     61. A(H  15,C  13,S  17)          108.8230         0.090101   
     62. A(H  14,C  13,S  17)          112.6619         0.080568   
     63. A(H  15,C  13,H  16)          107.3781         0.073063   
     64. A(H  14,C  13,H  15)          107.2662         0.067988   
     65. A(H  14,C  13,H  16)          108.2433         0.082384   
     66. A(C   0,S  17,C  13)          115.2915         0.017899   
     67. A(C   5,S  17,F   9)           47.9175         0.011546   
     68. A(N   1,S  17,F   9)           43.6826         0.011520   
     69. A(C   0,S  17,F   9)           28.1447         0.010858   
     70. A(F   9,S  17,C  13)           87.8589         0.015186   
     71. A(N   1,S  17,C   5)           45.8856         0.007495   
     72. A(C   0,S  17,C   5)           27.7070         0.004599   
     73. A(C   5,S  17,C  13)          132.1279         0.017970   
     74. A(C   0,S  17,N   1)           24.3169         0.005775   
     75. A(N   1,S  17,C  13)          117.2365         0.015992   
     76. D(S  17,N   1,C   0,C   5)    112.0233         0.007943   
     77. D(C   2,N   1,C   0,C   5)      6.7941         0.010446   
     78. D(S  17,N   1,C   0,F   9)   -101.6059         0.008868   
     79. D(C   2,N   1,C   0,S  17)   -105.2292         0.011951   
     80. D(C   2,N   1,C   0,F   9)    153.1649         0.011888   
     81. D(H  10,C   2,N   1,C   0)    178.1030         0.013099   
     82. D(C   3,C   2,N   1,S  17)    -60.9153         0.011672   
     83. D(H  10,C   2,N   1,S  17)    121.6509         0.013902   
     84. D(C   3,C   2,N   1,C   0)     -4.4632         0.013061   
     85. D(H  11,C   3,C   2,N   1)   -175.9245         0.011634   
     86. D(H  11,C   3,C   2,H  10)      1.4187         0.013487   
     87. D(C   4,C   3,C   2,H  10)    178.5946         0.011979   
     88. D(C   4,C   3,C   2,N   1)      1.2514         0.011388   
     89. D(C   5,C   4,C   3,H  11)    176.5684         0.010914   
     90. D(C   5,C   4,C   3,C   2)     -0.5851         0.009020   
     91. D(H  12,C   4,C   3,C   2)   -178.5111         0.009569   
     92. D(H  12,C   4,C   3,H  11)     -1.3577         0.012320   
     93. D(N   6,C   5,C   4,C   3)    177.0019         0.009126   
     94. D(N   6,C   5,C   0,S  17)    -64.0106         0.006280   
     95. D(S  17,C   5,C   0,F   9)     99.9602         0.008184   
     96. D(S  17,C   5,C   0,N   1)   -115.9718         0.009867   
     97. D(C   0,C   5,C   4,C   3)      3.0390         0.009383   
     98. D(N   6,C   5,C   4,H  12)     -5.0182         0.009638   
     99. D(N   6,C   5,C   0,F   9)     35.9495         0.008005   
    100. D(N   6,C   5,C   0,N   1)   -179.9824         0.007644   
    101. D(C   4,C   5,C   0,S  17)    109.7444         0.009476   
    102. D(S  17,C   5,C   4,H  12)   -116.7783         0.010207   
    103. D(S  17,C   5,C   4,C   3)     65.2417         0.009496   
    104. D(C   4,C   5,C   0,F   9)   -150.2954         0.010665   
    105. D(C   4,C   5,C   0,N   1)     -6.2274         0.009226   
    106. D(C   0,C   5,C   4,H  12)   -178.9811         0.009482   
    107. D(O   8,N   6,C   5,S  17)    113.4345         0.008949   
    108. D(O   8,N   6,C   5,C   4)    -14.6927         0.010703   
    109. D(O   8,N   6,C   5,C   0)    159.1232         0.009821   
    110. D(O   7,N   6,C   5,S  17)    -65.8658         0.009760   
    111. D(O   7,N   6,C   5,C   4)    166.0071         0.011214   
    112. D(O   7,N   6,C   5,C   0)    -20.1770         0.010869   
    113. D(S  17,F   9,C   0,C   5)   -103.2018         0.007174   
    114. D(S  17,F   9,C   0,N   1)    110.1170         0.010778   
    115. D(N   1,S  17,C   5,C   4)    -76.6962         0.024364   
    116. D(N   1,S  17,C   5,C   0)     27.9024         0.008185   
    117. D(C   0,S  17,C   5,N   6)    130.1598         0.019069   
    118. D(C  13,S  17,C   5,N   6)     69.0594         0.016632   
    119. D(C  13,S  17,C   5,C   4)   -165.6990         0.018193   
    120. D(C  13,S  17,C   5,C   0)    -61.1004         0.008091   
    121. D(F   9,S  17,N   1,C   0)     38.4465         0.012869   
    122. D(C   5,S  17,N   1,C   2)     72.3702         0.024111   
    123. D(C   5,S  17,N   1,C   0)    -31.8967         0.009735   
    124. D(C   0,S  17,N   1,C   2)    104.2669         0.023087   
    125. D(C  13,S  17,N   1,C   2)   -164.1425         0.020026   
    126. D(C  13,S  17,N   1,C   0)     91.5906         0.012198   
    127. D(F   9,S  17,C   0,C   5)    120.2403         0.012609   
    128. D(F   9,S  17,C   0,N   1)   -114.4371         0.013212   
    129. D(F   9,S  17,N   1,C   2)    142.7134         0.032060   
    130. D(C   5,S  17,C   0,F   9)   -120.2403         0.012609   
    131. D(C   5,S  17,C   0,N   1)    125.3226         0.016594   
    132. D(N   1,S  17,C   0,F   9)    114.4371         0.013212   
    133. D(C   0,S  17,C   5,C   4)   -104.5987         0.021853   
    134. D(N   1,S  17,C   0,C   5)   -125.3226         0.016594   
    135. D(C  13,S  17,C   0,F   9)     13.8597         0.005922   
    136. D(C  13,S  17,C   0,C   5)    134.1000         0.006526   
    137. D(N   1,S  17,C   5,N   6)    158.0622         0.021708   
    138. D(F   9,S  17,C  13,H  16)     83.5173         0.011726   
    139. D(F   9,S  17,C  13,H  15)   -157.7896         0.012266   
    140. D(C  13,S  17,C   0,N   1)   -100.5773         0.008316   
    141. D(C   5,S  17,C  13,H  16)    103.7815         0.013398   
    142. D(C   5,S  17,C  13,H  15)   -137.5254         0.014116   
    143. D(C   5,S  17,C  13,H  14)    -18.6999         0.015324   
    144. D(N   1,S  17,C  13,H  15)    168.6360         0.015972   
    145. D(N   1,S  17,C  13,H  14)    -72.5385         0.014807   
    146. D(C   0,S  17,C  13,H  16)     77.0248         0.011494   
    147. D(C   0,S  17,C  13,H  15)   -164.2821         0.012064   
    148. D(C   0,S  17,C  13,H  14)    -45.4567         0.011786   
    149. D(N   1,S  17,C  13,H  16)     49.9429         0.015434   
    150. D(C   5,S  17,F   9,C   0)     32.7665         0.009483   
    151. D(N   1,S  17,F   9,C   0)    -32.8746         0.012216   
    152. D(C  13,S  17,F   9,C   0)   -167.4826         0.004754   
    153. D(F   9,S  17,C  13,H  14)    -38.9642         0.012125   
    154. D(F   9,S  17,C   5,N   6)     96.8564         0.021080   
    155. D(F   9,S  17,C   5,C   4)   -137.9021         0.027697   
    156. D(F   9,S  17,C   5,C   0)    -33.3034         0.009978   
    -----------------------------------------------------------------

Number of atoms                         .... 18
Number of degrees of freedom            .... 156

         *************************************************************
         *                GEOMETRY OPTIMIZATION CYCLE   1            *
         *************************************************************


           ************************************************************
           *        Program running with 24 parallel MPI-processes    *
           *              working on a common directory               *
           ************************************************************
------------------------------------------------------------------------------
                           ORCA GTO INTEGRAL CALCULATION
                           -- RI-GTO INTEGRALS CHOSEN --
------------------------------------------------------------------------------
------------------------------------------------------------------------------
                   ___                                                        
                  /   \      - P O W E R E D   B Y -                         
                 /     \                                                     
                 |  |  |   _    _      __       _____    __    __             
                 |  |  |  | |  | |    /  \     |  _  \  |  |  /  |          
                  \  \/   | |  | |   /    \    | | | |  |  | /  /          
                 / \  \   | |__| |  /  /\  \   | |_| |  |  |/  /          
                |  |  |   |  __  | /  /__\  \  |    /   |      \           
                |  |  |   | |  | | |   __   |  |    \   |  |\   \          
                \     /   | |  | | |  |  |  |  | |\  \  |  | \   \       
                 \___/    |_|  |_| |__|  |__|  |_| \__\ |__|  \__/        
                                                                              
                      - O R C A' S   B I G   F R I E N D -                    
                                      &                                       
                       - I N T E G R A L  F E E D E R -                       
                                                                              
 v1 FN, 2020, v2 2021                                                         
------------------------------------------------------------------------------


Reading SHARK input file TS_search_opt_without_h.SHARKINP.tmp ... ok
----------------------
SHARK INTEGRAL PACKAGE
----------------------

Number of atoms                             ...     18
Number of basis functions                   ...    314
Number of shells                            ...    154
Maximum angular momentum                    ...      2
Integral batch strategy                     ... SHARK/LIBINT Hybrid
RI-J (if used) integral strategy            ... SPLIT-RIJ (Revised 2003 algorithm where possible)
Printlevel                                  ...      1
Contraction scheme used                     ... SEGMENTED contraction
Coulomb Range Separation                    ... NOT USED
Exchange Range Separation                   ... Long Range
   Mu parameter                             ...  0.300000
   Scaling (regular/separated)              ...  0.157706  0.842294
Finite Nucleus Model                        ... NOT USED
Auxiliary Coulomb fitting basis             ... AVAILABLE
   # of basis functions in Aux-J            ...    656
   # of shells in Aux-J                     ...    212
   Maximum angular momentum in Aux-J        ...      4
Auxiliary J/K fitting basis                 ... NOT available
Auxiliary Correlation fitting basis         ... NOT available
Auxiliary 'external' fitting basis          ... NOT available
Integral threshold                          ...     2.500000e-11
Primitive cut-off                           ...     2.500000e-12
Primitive pair pre-selection threshold      ...     2.500000e-12

Calculating pre-screening integrals         ... done (  0.1 sec) Dimension = 154
Organizing shell pair data                  ... done (  0.1 sec)
Shell pair information
Total number of shell pairs                 ...     11935
Shell pairs after pre-screening             ...     10260
Total number of primitive shell pairs       ...     38500
Primitive shell pairs kept                  ...     23415
          la=0 lb=0:   3135 shell pairs
          la=1 lb=0:   4186 shell pairs
          la=1 lb=1:   1433 shell pairs
          la=2 lb=0:    844 shell pairs
          la=2 lb=1:    591 shell pairs
          la=2 lb=2:     71 shell pairs

Calculating one electron integrals          ... done (  0.0 sec)
Calculating RI/J V-Matrix + Cholesky decomp.... done (  0.1 sec)
Calculating Nuclear repulsion               ... done (  0.0 sec) ENN=    812.710770315871 Eh

SHARK setup successfully completed in   0.7 seconds

Maximum memory used throughout the entire GTOINT-calculation: 17.0 MB


           ************************************************************
           *        Program running with 24 parallel MPI-processes    *
           *              working on a common directory               *
           ************************************************************
-------------------------------------------------------------------------------
                                 ORCA SCF
-------------------------------------------------------------------------------

------------
SCF SETTINGS
------------
Hamiltonian:
 Density Functional     Method          .... DFT(GTOs)
 Exchange Functional    Exchange        .... WB97X
 Correlation Functional Correlation     .... WB97X
 Gradients option       PostSCFGGA      .... off
 Hybrid DFT is turned on
   Fraction HF Exchange ScalHFX         ....  0.157706
   Scaling of DF-GGA-X  ScalDFX         ....  0.000000
   Scaling of DF-GGA-C  ScalDFC         ....  1.000000
   Scaling of DF-LDA-C  ScalLDAC        ....  1.000000
   Perturbative correction              ....  0.000000
   Density functional embedding theory  .... OFF
 Long-range corrected/Screened/Range-Separated Hybrid DFT is turned on
   Amount of maximum screened exact exchange              ....  0.842294
   Range separation parameter mu (erf(mu*r12)/r12)        ....  0.300000
 RI-approximation to the Coulomb term is turned on
   Number of AuxJ basis functions       .... 656
   RIJ-COSX (HFX calculated with COS-X)).... on


General Settings:
 Integral files         IntName         .... TS_search_opt_without_h
 Hartree-Fock type      HFTyp           .... RHF
 Total Charge           Charge          ....   -1
 Multiplicity           Mult            ....    1
 Number of Electrons    NEL             ....   98
 Basis Dimension        Dim             ....  314
 Nuclear Repulsion      ENuc            ....    812.7107703159 Eh

Convergence Acceleration:
 DIIS                   CNVDIIS         .... on
   Start iteration      DIISMaxIt       ....    12
   Startup error        DIISStart       ....  0.200000
   # of expansion vecs  DIISMaxEq       ....     5
   Bias factor          DIISBfac        ....   1.050
   Max. coefficient     DIISMaxC        ....  10.000
 Trust-Rad. Augm. Hess. CNVTRAH         .... auto
   Auto Start mean grad. ratio tolernc. ....  1.125000
   Auto Start start iteration           ....     1
   Auto Start num. interpolation iter.  ....    10
   Max. Number of Micro iterations      ....    16
   Max. Number of Macro iterations      .... Maxiter - #DIIS iter
   Number of Davidson start vectors     ....     2
   Converg. threshold I  (grad. norm)   ....   1.000e-05
   Converg. threshold II (energy diff.) ....   1.000e-08
   Grad. Scal. Fac. for Micro threshold ....   0.100
   Minimum threshold for Micro iter.    ....   0.010
   NR start threshold (gradient norm)   ....   0.001
   Initial trust radius                 ....   0.400
   Minimum AH scaling param. (alpha)    ....   1.000
   Maximum AH scaling param. (alpha)    .... 1000.000
   Orbital update algorithm             .... Taylor
   White noise on init. David. guess    .... on
   Maximum white noise                  ....   0.010
   Quad. conv. algorithm                .... NR
 SOSCF                  CNVSOSCF        .... on
   Start iteration      SOSCFMaxIt      ....   150
   Startup grad/error   SOSCFStart      ....  0.003300
 Level Shifting         CNVShift        .... on
   Level shift para.    LevelShift      ....    0.2500
   Turn off err/grad.   ShiftErr        ....    0.0010
 Zerner damping         CNVZerner       .... off
 Static damping         CNVDamp         .... on
   Fraction old density DampFac         ....    0.7000
   Max. Damping (<1)    DampMax         ....    0.9800
   Min. Damping (>=0)   DampMin         ....    0.0000
   Turn off err/grad.   DampErr         ....    0.1000
 Fernandez-Rico         CNVRico         .... off

SCF Procedure:
 Maximum # iterations   MaxIter         ....   125
 SCF integral mode      SCFMode         .... Direct
   Integral package                     .... SHARK and LIBINT hybrid scheme
 Reset frequency        DirectResetFreq ....    20
 Integral Threshold     Thresh          ....  2.500e-11 Eh
 Primitive CutOff       TCut            ....  2.500e-12 Eh

Convergence Tolerance:
 Convergence Check Mode ConvCheckMode   .... Total+1el-Energy
 Convergence forced     ConvForced      .... 0
 Energy Change          TolE            ....  1.000e-08 Eh
 1-El. energy change                    ....  1.000e-05 Eh
 Orbital Gradient       TolG            ....  1.000e-05
 Orbital Rotation angle TolX            ....  1.000e-05
 DIIS Error             TolErr          ....  5.000e-07


Diagonalization of the overlap matrix:
Smallest eigenvalue                        ... 2.934e-06
Time for diagonalization                   ...    0.015 sec
Threshold for overlap eigenvalues          ... 1.000e-08
Number of eigenvalues below threshold      ... 0
Time for construction of square roots      ...    0.028 sec
Total time needed                          ...    0.044 sec

---------------------
INITIAL GUESS: MOREAD
---------------------
Guess MOs are being read from file: TS_search_opt_without_h.gbw
Input Geometry matches current geometry (good)
Input basis set matches current basis set (good)
MOs were renormalized
MOs were reorthogonalized (Cholesky)
                      ------------------
                      INITIAL GUESS DONE (   0.0 sec)
                      ------------------
-------------------
DFT GRID GENERATION
-------------------

General Integration Accuracy     IntAcc      ... 4.388
Radial Grid Type                 RadialGrid  ... OptM3 with GC (2021)
Angular Grid (max. ang.)         AngularGrid ... 4 (Lebedev-302)
Angular grid pruning method      GridPruning ... 4 (adaptive)
Weight generation scheme         WeightScheme... Becke
Basis function cutoff            BFCut       ... 1.0000e-11
Integration weight cutoff        WCut        ... 1.0000e-14
Angular grids for H and He will be reduced by one unit
Partially contracted basis set               ... off
Rotationally invariant grid construction     ... off

Total number of grid points                  ...    97757
Total number of batches                      ...     1535
Average number of points per batch           ...       63
Average number of grid points per atom       ...     5431
Time for grid setup =    0.620 sec

--------------------
COSX GRID GENERATION
--------------------

GRIDX 1
-------
General Integration Accuracy     IntAcc      ... 3.816
Radial Grid Type                 RadialGrid  ... OptM3 with GC (2021)
Angular Grid (max. ang.)         AngularGrid ... 1 (Lebedev-50)
Angular grid pruning method      GridPruning ... 4 (adaptive)
Weight generation scheme         WeightScheme... Becke
Basis function cutoff            BFCut       ... 1.0000e-11
Integration weight cutoff        WCut        ... 1.0000e-14
Angular grids for H and He will be reduced by one unit
Partially contracted basis set               ... on
Rotationally invariant grid construction     ... off

Total number of grid points                  ...    12232
Total number of batches                      ...      199
Average number of points per batch           ...       61
Average number of grid points per atom       ...      680
UseSFitting                                  ... on

GRIDX 2
-------
General Integration Accuracy     IntAcc      ... 4.020
Radial Grid Type                 RadialGrid  ... OptM3 with GC (2021)
Angular Grid (max. ang.)         AngularGrid ... 2 (Lebedev-110)
Angular grid pruning method      GridPruning ... 4 (adaptive)
Weight generation scheme         WeightScheme... Becke
Basis function cutoff            BFCut       ... 1.0000e-11
Integration weight cutoff        WCut        ... 1.0000e-14
Angular grids for H and He will be reduced by one unit
Partially contracted basis set               ... on
Rotationally invariant grid construction     ... off

Total number of grid points                  ...    30568
Total number of batches                      ...      487
Average number of points per batch           ...       62
Average number of grid points per atom       ...     1698
UseSFitting                                  ... on

GRIDX 3
-------
General Integration Accuracy     IntAcc      ... 4.338
Radial Grid Type                 RadialGrid  ... OptM3 with GC (2021)
Angular Grid (max. ang.)         AngularGrid ... 3 (Lebedev-194)
Angular grid pruning method      GridPruning ... 4 (adaptive)
Weight generation scheme         WeightScheme... Becke
Basis function cutoff            BFCut       ... 1.0000e-11
Integration weight cutoff        WCut        ... 1.0000e-14
Angular grids for H and He will be reduced by one unit
Partially contracted basis set               ... on
Rotationally invariant grid construction     ... off

Total number of grid points                  ...    67963
Total number of batches                      ...     1071
Average number of points per batch           ...       63
Average number of grid points per atom       ...     3776
UseSFitting                                  ... on

Time for X-Grid setup             =    1.187 sec


--------------------
CPCM SOLVATION MODEL
--------------------
CPCM parameters:
  Epsilon                                         ...      78.3550
  Refrac                                          ...       1.3328
  Rsolv                                           ...       1.3000
  Surface type                                    ... GAUSSIAN VDW
  Epsilon function type                           ...         CPCM
Solvent:                                     ... WATER
SMD-CDS solvent descriptors:
  Soln                                       ...    1.3328
  Soln25                                     ...    1.3323
  Sola                                       ...    0.0000
  Solb                                       ...    0.0000
  Solg                                       ...    0.0000
  Solc                                       ...    0.0000
  Solh                                       ...    0.0000
Radii:
 Radius for C  used is    3.4960 Bohr (=   1.8500 Ang.)
 Radius for N  used is    3.5716 Bohr (=   1.8900 Ang.)
 Radius for O  used is    2.8724 Bohr (=   1.5200 Ang.)
 Radius for F  used is    3.2692 Bohr (=   1.7300 Ang.)
 Radius for H  used is    2.2677 Bohr (=   1.2000 Ang.)
 Radius for S  used is    4.7054 Bohr (=   2.4900 Ang.)
Calculating surface                               ...        done! (  0.0s)
GEPOL surface points                              ...         1064
GEPOL Volume                                      ...    1268.1494
GEPOL Surface-area                                ...     707.5751
Calculating surface distance matrix               ...        done! (  0.0s)
Performing Cholesky decomposition & store         ...        done! (  0.1s)
Overall time for CPCM initialization              ...                 0.1s
--------------
SCF ITERATIONS
--------------
ITER       Energy         Delta-E        Max-DP      RMS-DP      [F,P]     Damp
               ***  Starting incremental Fock matrix formation  ***
                      *** Initiating the SOSCF procedure ***
                      *** Re-Reading the Fockian *** 
                      *** Removing any level shift *** 
ITER      Energy       Delta-E        Grad      Rot      Max-DP    RMS-DP
  0   -990.26760617 -990.2676061740  0.000003  0.000003  0.016327  0.000110
               *** Restarting incremental Fock matrix formation ***
                  ***Gradient check signals convergence***
              ***Rediagonalizing the Fockian in SOSCF/NRSCF***

               *****************************************************
               *                     SUCCESS                       *
               *           SCF CONVERGED AFTER   1 CYCLES          *
               *****************************************************

Old exchange energy                            =    -28.484995414 Eh
New exchange energy                            =    -28.484989123 Eh
Exchange energy change after final integration =      0.000006291 Eh
Total energy after final integration           =   -990.267599884 Eh
Final COS-X integration done in                =     4.684 sec

SMD CDS free energy correction energy :                 5.49629     Kcal/mol
Total Energy after SMD CDS correction =              -990.258840991 Eh

----------------
TOTAL SCF ENERGY
----------------

Total Energy       :         -990.25884099 Eh          -26946.31299 eV

Components:
Nuclear Repulsion  :          812.71077032 Eh           22114.98436 eV
Electronic Energy  :        -1802.96961131 Eh          -49061.29735 eV
One Electron Energy:        -2990.13588649 Eh          -81365.73403 eV
Two Electron Energy:         1187.16627518 Eh           32304.43667 eV
Max COSX asymmetry :            0.00000356 Eh               0.00010 eV
CPCM Dielectric    :           -0.10253212 Eh              -2.79004 eV
SMD CDS (Gcds)     :            0.00875889 Eh               0.23834 eV

Virial components:
Potential Energy   :        -1978.35678149 Eh          -53833.82488 eV
Kinetic Energy     :          988.09794050 Eh           26887.51190 eV
Virial Ratio       :            2.00218693


DFT components:
N(Alpha)           :       48.999990001087 electrons
N(Beta)            :       48.999990001087 electrons
N(Total)           :       97.999980002174 electrons
E(XC)              :      -73.547408010302 Eh       
DFET-embed. en.    :        0.000000000000 Eh       
CPCM Solvation Model Properties:
Surface-charge          :            0.95156900
Charge-correction       :           -0.00606021 Eh              -0.16491 eV
Free-energy (cav+disp)  :            0.00875889 Eh               0.23834 eV

---------------
SCF CONVERGENCE
---------------

  Last Energy change         ...   -7.3044e-10  Tolerance :   1.0000e-08
  Last MAX-Density change    ...    1.7764e-15  Tolerance :   1.0000e-07
  Last RMS-Density change    ...    3.7052e-17  Tolerance :   5.0000e-09
  Last Orbital Gradient      ...    2.1135e-06  Tolerance :   1.0000e-05
  Last Orbital Rotation      ...    5.1950e-06  Tolerance :   1.0000e-05

             **** THE GBW FILE WAS UPDATED (TS_search_opt_without_h.gbw) ****
             **** DENSITY TS_search_opt_without_h.scfp WAS UPDATED ****
             **** ENERGY FILE WAS UPDATED (TS_search_opt_without_h.en.tmp) ****
             **** THE GBW FILE WAS UPDATED (TS_search_opt_without_h.gbw) ****
             **** DENSITY TS_search_opt_without_h.scfp WAS UPDATED ****
----------------
ORBITAL ENERGIES
----------------

  NO   OCC          E(Eh)            E(eV) 
   0   2.0000     -88.751313     -2415.0460 
   1   2.0000     -24.748391      -673.4380 
   2   2.0000     -19.232199      -523.3348 
   3   2.0000     -19.228280      -523.2281 
   4   2.0000     -14.645103      -398.5135 
   5   2.0000     -14.395401      -391.7188 
   6   2.0000     -10.413637      -283.3695 
   7   2.0000     -10.314018      -280.6587 
   8   2.0000     -10.309955      -280.5481 
   9   2.0000     -10.293361      -280.0966 
  10   2.0000     -10.259677      -279.1800 
  11   2.0000     -10.248356      -278.8720 
  12   2.0000      -7.947256      -216.2558 
  13   2.0000      -5.910241      -160.8258 
  14   2.0000      -5.904399      -160.6669 
  15   2.0000      -5.901582      -160.5902 
  16   2.0000      -1.376425       -37.4544 
  17   2.0000      -1.354871       -36.8679 
  18   2.0000      -1.190397       -32.3923 
  19   2.0000      -1.093368       -29.7521 
  20   2.0000      -0.985438       -26.8151 
  21   2.0000      -0.921506       -25.0755 
  22   2.0000      -0.850799       -23.1514 
  23   2.0000      -0.843393       -22.9499 
  24   2.0000      -0.771592       -20.9961 
  25   2.0000      -0.742397       -20.2017 
  26   2.0000      -0.698405       -19.0046 
  27   2.0000      -0.688782       -18.7427 
  28   2.0000      -0.668487       -18.1904 
  29   2.0000      -0.661257       -17.9937 
  30   2.0000      -0.649665       -17.6783 
  31   2.0000      -0.619750       -16.8642 
  32   2.0000      -0.593636       -16.1536 
  33   2.0000      -0.591173       -16.0866 
  34   2.0000      -0.538518       -14.6538 
  35   2.0000      -0.517654       -14.0861 
  36   2.0000      -0.506098       -13.7716 
  37   2.0000      -0.501749       -13.6533 
  38   2.0000      -0.499845       -13.6015 
  39   2.0000      -0.496161       -13.5012 
  40   2.0000      -0.439416       -11.9571 
  41   2.0000      -0.427867       -11.6429 
  42   2.0000      -0.419368       -11.4116 
  43   2.0000      -0.413793       -11.2599 
  44   2.0000      -0.401746       -10.9321 
  45   2.0000      -0.386854       -10.5268 
  46   2.0000      -0.354989        -9.6597 
  47   2.0000      -0.281721        -7.6660 
  48   2.0000      -0.268332        -7.3017 
  49   0.0000      -0.021039        -0.5725 
  50   0.0000       0.051763         1.4085 
  51   0.0000       0.055796         1.5183 
  52   0.0000       0.062386         1.6976 
  53   0.0000       0.068545         1.8652 
  54   0.0000       0.075534         2.0554 
  55   0.0000       0.083861         2.2820 
  56   0.0000       0.089593         2.4380 
  57   0.0000       0.094834         2.5806 
  58   0.0000       0.101135         2.7520 
  59   0.0000       0.114881         3.1261 
  60   0.0000       0.126550         3.4436 
  61   0.0000       0.130909         3.5622 
  62   0.0000       0.133280         3.6267 
  63   0.0000       0.138407         3.7662 
  64   0.0000       0.150741         4.1019 
  65   0.0000       0.163345         4.4448 
  66   0.0000       0.168135         4.5752 
  67   0.0000       0.169029         4.5995 
  68   0.0000       0.175225         4.7681 
  69   0.0000       0.178115         4.8468 
  70   0.0000       0.182045         4.9537 
  71   0.0000       0.188701         5.1348 
  72   0.0000       0.192239         5.2311 
  73   0.0000       0.197657         5.3785 
  74   0.0000       0.202874         5.5205 
  75   0.0000       0.204291         5.5590 
  76   0.0000       0.210500         5.7280 
  77   0.0000       0.214852         5.8464 
  78   0.0000       0.219339         5.9685 
  79   0.0000       0.223806         6.0901 
  80   0.0000       0.230887         6.2827 
  81   0.0000       0.231888         6.3100 
  82   0.0000       0.245598         6.6831 
  83   0.0000       0.248025         6.7491 
  84   0.0000       0.251675         6.8484 
  85   0.0000       0.264998         7.2110 
  86   0.0000       0.267068         7.2673 
  87   0.0000       0.274861         7.4794 
  88   0.0000       0.278124         7.5681 
  89   0.0000       0.283318         7.7095 
  90   0.0000       0.288849         7.8600 
  91   0.0000       0.300255         8.1704 
  92   0.0000       0.305236         8.3059 
  93   0.0000       0.315568         8.5870 
  94   0.0000       0.323344         8.7986 
  95   0.0000       0.328536         8.9399 
  96   0.0000       0.333332         9.0704 
  97   0.0000       0.340641         9.2693 
  98   0.0000       0.348927         9.4948 
  99   0.0000       0.357370         9.7245 
 100   0.0000       0.362798         9.8722 
 101   0.0000       0.365958         9.9582 
 102   0.0000       0.371640        10.1128 
 103   0.0000       0.375966        10.2305 
 104   0.0000       0.380321        10.3491 
 105   0.0000       0.388133        10.5616 
 106   0.0000       0.395307        10.7569 
 107   0.0000       0.405448        11.0328 
 108   0.0000       0.409626        11.1465 
 109   0.0000       0.419261        11.4087 
 110   0.0000       0.426339        11.6013 
 111   0.0000       0.438997        11.9457 
 112   0.0000       0.445003        12.1092 
 113   0.0000       0.454244        12.3606 
 114   0.0000       0.460387        12.5278 
 115   0.0000       0.468643        12.7524 
 116   0.0000       0.473533        12.8855 
 117   0.0000       0.485404        13.2085 
 118   0.0000       0.488302        13.2874 
 119   0.0000       0.494855        13.4657 
 120   0.0000       0.521978        14.2037 
 121   0.0000       0.531420        14.4607 
 122   0.0000       0.543286        14.7836 
 123   0.0000       0.547229        14.8909 
 124   0.0000       0.562781        15.3140 
[...]
      9      -0.002546  -0.002282   0.124097   0.078541   0.384495   0.108499
     10       0.003158   0.001833  -0.054514  -0.082064  -0.167116   0.084550
     11       0.001722   0.000718   0.019353  -0.035648   0.066269   0.150630
     12      -0.001313  -0.001343   0.027259  -0.014412  -0.239711  -0.207952
     13      -0.000012  -0.002200   0.121391  -0.015057   0.086631  -0.155459
     14      -0.001039  -0.002861   0.131023  -0.025761  -0.072186  -0.280148
     15       0.004611   0.002309  -0.073009   0.023462   0.150605   0.041115
     16      -0.005236  -0.000505  -0.084856   0.072435  -0.238974   0.177568
     17      -0.001392   0.000863  -0.122572   0.075456  -0.100761   0.187166
     18      -0.002632   0.002347  -0.046902   0.107203   0.050782   0.033623
     19       0.000693  -0.001445  -0.071598  -0.511889   0.126813  -0.056558
     20      -0.001099   0.000404  -0.069469  -0.268702   0.116256  -0.018502
     21       0.000638  -0.000389   0.035772   0.052330  -0.023054  -0.009856
     22       0.000985  -0.000609   0.076306   0.215100  -0.078412   0.002945
     23       0.000803  -0.000637   0.065988   0.161959  -0.062900  -0.002750
     24       0.000434  -0.001666   0.010595  -0.139674  -0.017379  -0.018786
     25      -0.000631   0.001783  -0.005283   0.196200  -0.002227   0.030809
     26      -0.000156   0.000238   0.002154   0.049203  -0.011141   0.009993
     27       0.000159   0.000026  -0.010644   0.013885   0.009702  -0.004018
     28      -0.000800  -0.000873   0.004678   0.002920  -0.012119  -0.005748
     29      -0.000738  -0.000344  -0.002603   0.014963  -0.014141  -0.000374
     30      -0.003056   0.002386  -0.226792   0.127648  -0.089772  -0.207130
     31       0.017448  -0.000476   0.393726  -0.451017  -0.171089   0.370837
     32       0.015638   0.000302   0.292789  -0.399603  -0.225515   0.283169
     33       0.007039   0.011216  -0.554381  -0.004781  -0.451257  -0.006607
     34      -0.000721  -0.004210   0.268289  -0.058739   0.230495   0.168568
     35       0.003242   0.002425  -0.067599  -0.053862  -0.035370   0.169013
     36       0.008147   0.008278  -0.312422  -0.009922  -0.068726   0.291023
     37       0.005776   0.003425  -0.066797  -0.028029   0.241558   0.149028
     38       0.011311   0.008467  -0.261938  -0.038849   0.182255   0.329401
     39      -0.057807   0.023042   0.000899  -0.002521  -0.000649  -0.000506
     40       0.021971   0.033901   0.000963   0.000849   0.000428  -0.001006
     41      -0.012102  -0.048209  -0.002263  -0.000430  -0.000013   0.003844
     42       0.167790  -0.494155  -0.020123   0.015422   0.001611   0.006400
     43       0.434780  -0.108517  -0.001661   0.026185   0.001709  -0.009531
     44       0.001667   0.469418   0.020461  -0.005041  -0.001403  -0.007581
     45       0.678489  -0.091256  -0.004604   0.030717   0.004649  -0.005110
     46      -0.251318  -0.072707   0.000093  -0.003128  -0.002579  -0.012989
     47       0.023112  -0.323044  -0.007283   0.015113  -0.001374  -0.026168
     48      -0.070114   0.276165   0.011684  -0.003388   0.000159  -0.009114
     49      -0.480968  -0.275994  -0.007291  -0.013136  -0.002116  -0.000971
     50       0.132394   0.498865   0.019719   0.001866   0.002681  -0.008326
     51      -0.002515   0.001065  -0.000757   0.001739   0.001687  -0.002061
     52       0.001202   0.001692   0.000887  -0.001304   0.000071  -0.003448
     53      -0.000371  -0.002375  -0.000759   0.001895  -0.000283   0.002278
                 48         49         50         51         52         53    
      0       0.000399  -0.000255  -0.000047   0.000889  -0.000179   0.000063
      1       0.000462  -0.000164  -0.000067   0.001042   0.000196  -0.000345
      2      -0.000528   0.000452  -0.000157   0.000916  -0.000228  -0.000305
      3      -0.000208   0.000168   0.000016   0.000559  -0.000255  -0.000047
      4      -0.000175   0.000123  -0.000029   0.000391  -0.000273  -0.000198
      5      -0.000084   0.000094   0.000021   0.000763  -0.000373  -0.000186
      6      -0.000119   0.000025  -0.000013  -0.078954   0.012779   0.008877
      7       0.000137  -0.000101  -0.000032   0.002132  -0.002240  -0.002210
      8       0.000132  -0.000142  -0.000019  -0.035190   0.003935   0.002114
      9       0.000062  -0.000102  -0.000036   0.005556   0.011198   0.014600
     10      -0.000062   0.000005   0.000018   0.006780   0.043583   0.035450
     11      -0.000048  -0.000037  -0.000025   0.009752   0.048928   0.043318
     12      -0.000022   0.000070   0.000032   0.001152   0.035855  -0.049341
     13       0.000008   0.000009   0.000009  -0.001124  -0.038951   0.047099
     14       0.000027   0.000040   0.000028  -0.000281  -0.013932   0.012937
     15       0.000135  -0.000158  -0.000099   0.000170   0.000274  -0.000549
     16      -0.000160   0.000114   0.000001  -0.000412   0.001329  -0.002168
     17       0.000164  -0.000193  -0.000040  -0.000200   0.001409  -0.002429
     18      -0.000312   0.000282   0.000145   0.000149   0.000455  -0.000620
     19       0.000067   0.000019  -0.000013   0.000011  -0.000654   0.000794
     20      -0.000096   0.000140   0.000061   0.000061  -0.000274   0.000241
     21       0.000035  -0.000029  -0.000004  -0.000040  -0.000096   0.000179
     22       0.000064  -0.000125  -0.000093  -0.000046   0.000025  -0.000036
     23       0.000073  -0.000080  -0.000051  -0.000057  -0.000024   0.000072
     24       0.000126  -0.000106  -0.000059  -0.000074   0.000081  -0.000029
     25      -0.000098   0.000078   0.000039   0.000074   0.000385  -0.000436
     26      -0.000016   0.000019   0.000014   0.000009   0.000372  -0.000369
     27       0.000017  -0.000020   0.000007  -0.000044   0.000002  -0.000009
     28       0.000098  -0.000119   0.000090  -0.000109  -0.000022   0.000029
     29       0.000181  -0.000183   0.000075  -0.000135   0.000039   0.000038
     30       0.001081   0.000158   0.000281   0.894619  -0.125052  -0.079108
     31      -0.000050  -0.000008  -0.000011  -0.014515   0.004362   0.003486
     32       0.000428   0.000048   0.000148   0.405775  -0.054406  -0.033778
     33       0.000030   0.000138   0.000049  -0.037502  -0.153102  -0.131203
     34       0.000035   0.000439   0.000125  -0.102554  -0.484046  -0.401830
     35       0.000005   0.000555   0.000116  -0.121479  -0.558100  -0.465539
     36      -0.000036  -0.000179  -0.000092  -0.014818  -0.437936   0.531211
     37      -0.000110   0.000190   0.000064   0.014688   0.440622  -0.530114
     38      -0.000042   0.000035   0.000040   0.004482   0.136474  -0.160331
     39      -0.009874  -0.028641   0.087779  -0.000023  -0.000015   0.000014
     40      -0.031440  -0.061154  -0.033985   0.000031  -0.000044  -0.000050
     41      -0.033045   0.064747   0.006987   0.000057   0.000026   0.000034
     42       0.406908  -0.285614  -0.488770  -0.000286  -0.000014  -0.000219
     43      -0.219325   0.133346   0.259112   0.000151   0.000008   0.000110
     44       0.351870  -0.231414  -0.443759  -0.000305  -0.000051  -0.000272
     45       0.191638   0.269747   0.025769  -0.000233   0.000130   0.000165
     46       0.486992   0.690891   0.013247  -0.000770   0.000380   0.000541
     47      -0.244759  -0.328446  -0.008604   0.000078  -0.000251  -0.000245
     48      -0.481122   0.355961  -0.577199   0.000643  -0.000094   0.000052
     49       0.105869  -0.097604   0.130876  -0.000169   0.000012  -0.000011
     50       0.289568  -0.210076   0.370044  -0.000461   0.000018  -0.000072
     51      -0.000060   0.000073  -0.000170  -0.000035  -0.000013  -0.000000
     52      -0.000100   0.000128   0.000067  -0.000046  -0.000021  -0.000008
     53      -0.000066  -0.000077  -0.000021   0.000031   0.000024   0.000005


-----------
IR SPECTRUM
-----------

 Mode   freq       eps      Int      T**2         TX        TY        TZ
       cm**-1   L/(mol*cm) km/mol    a.u.
----------------------------------------------------------------------------
  7:     38.92   0.002401   12.13  0.019248  ( 0.122295 -0.064553  0.011191)
  8:     62.75   0.001255    6.34  0.006243  ( 0.075271  0.012739 -0.020380)
  9:     74.84   0.001743    8.81  0.007268  ( 0.040831  0.066829 -0.033678)
 10:     82.73   0.000588    2.97  0.002219  ( 0.016157  0.040769 -0.017191)
 11:    114.15   0.000787    3.98  0.002153  (-0.011802  0.043047 -0.012657)
 12:    134.67   0.001147    5.79  0.002657  (-0.011561 -0.032801  0.038046)
 13:    188.41   0.002055   10.38  0.003403  (-0.024118 -0.041038  0.033729)
 14:    240.94   0.000924    4.67  0.001197  (-0.014386  0.016175 -0.026986)
 15:    285.63   0.003289   16.62  0.003594  (-0.008204 -0.056885  0.017045)
 16:    387.67   0.000227    1.15  0.000183  (-0.002206 -0.013341 -0.000161)
 17:    403.16   0.030924  156.28  0.023937  ( 0.006477 -0.138054  0.069539)
 18:    447.23   0.043938  222.05  0.030659  (-0.033846 -0.159771  0.063137)
 19:    466.13   0.003991   20.17  0.002672  ( 0.027121 -0.043773  0.004482)
 20:    567.73   0.003162   15.98  0.001738  ( 0.005823  0.005085  0.040965)
 21:    586.54   0.006472   32.71  0.003443  (-0.038843 -0.043404  0.007128)
 22:    674.34   0.066764  337.40  0.030896  ( 0.041501  0.159663 -0.060677)
 23:    686.36   0.060703  306.77  0.027599  (-0.016337 -0.124267  0.109043)
 24:    749.58   0.000770    3.89  0.000321  (-0.001989 -0.009615 -0.014976)
 25:    759.41   0.028900  146.05  0.011876  ( 0.037597  0.075331 -0.069193)
 26:    817.07   0.005518   27.88  0.002107  (-0.014943 -0.016927  0.039969)
 27:    832.24   0.007209   36.43  0.002703  ( 0.024242  0.033630 -0.031376)
 28:    901.32   0.017019   86.01  0.005892  (-0.058071 -0.005270 -0.049923)
 29:    961.15   0.004827   24.39  0.001567  (-0.004222  0.025099 -0.030319)
 30:    980.68   0.007368   37.23  0.002344  (-0.036849  0.027680 -0.014846)
 31:   1018.59   0.000499    2.52  0.000153  (-0.012114 -0.002402 -0.000472)
 32:   1022.93   0.001487    7.52  0.000454  (-0.018292 -0.009595  0.005197)
 33:   1066.17   0.123204  622.62  0.036061  ( 0.130401 -0.117688  0.072156)
 34:   1101.58   0.042120  212.86  0.011932  ( 0.069783 -0.036937  0.075486)
 35:   1179.55   0.060046  303.45  0.015886  ( 0.108284 -0.064078 -0.007380)
 36:   1186.19   0.192956  975.12  0.050763  (-0.157826  0.155574 -0.040629)
 37:   1274.05   0.046021  232.57  0.011272  ( 0.067933 -0.055645  0.059674)
 38:   1292.23   0.190145  960.92  0.045919  ( 0.168637 -0.072253  0.110723)
 39:   1358.85   0.005906   29.85  0.001356  ( 0.017855  0.019734  0.025459)
 40:   1398.24   0.153487  775.66  0.034256  (-0.147180  0.035039 -0.106611)
 41:   1432.37   0.041003  207.21  0.008933  ( 0.061559  0.057352  0.043062)
 42:   1460.52   0.001459    7.37  0.000312  ( 0.016463 -0.005802  0.002649)
 43:   1472.93   0.002197   11.10  0.000466  (-0.008632 -0.015997  0.011626)
 44:   1490.19   0.015831   80.00  0.003315  ( 0.020810 -0.048778 -0.022424)
 45:   1542.80   0.165901  838.39  0.033557  (-0.025038 -0.148155 -0.104786)
 46:   1625.72   0.088606  447.78  0.017008  (-0.088503  0.094683  0.014513)
 47:   1661.28   0.111136  561.64  0.020876  (-0.054430 -0.112071 -0.073169)
 48:   3049.22   0.022032  111.34  0.002255  (-0.009325 -0.034011 -0.031797)
 49:   3128.97   0.004123   20.84  0.000411  (-0.007403 -0.008936  0.016631)
 50:   3131.36   0.005922   29.93  0.000590  ( 0.022848 -0.008053  0.001823)
 51:   3204.02   0.005131   25.93  0.000500  (-0.018907 -0.005464 -0.010601)
 52:   3245.78   0.000318    1.61  0.000031  (-0.003068  0.002333  0.003967)
 53:   3257.83   0.000835    4.22  0.000080  ( 0.007225 -0.004399  0.002903)

* The epsilon (eps) is given for a Dirac delta lineshape.
** The dipole moment derivative (T) already includes vibrational overlap.

The first frequency considered to be a vibration is 7
The total number of vibrations considered is 47


--------------------------
THERMOCHEMISTRY AT 298.15K
--------------------------

Temperature         ... 298.15 K
Pressure            ... 1.00 atm
Total Mass          ... 189.18 AMU

Throughout the following assumptions are being made:
  (1) The electronic state is orbitally nondegenerate
  (2) There are no thermally accessible electronically excited states
  (3) Hindered rotations indicated by low frequency modes are not
      treated as such but are treated as vibrations and this may
      cause some error
  (4) All equations used are the standard statistical mechanics
      equations for an ideal gas
  (5) All vibrations are strictly harmonic

freq.      38.92  E(vib)   ...       0.54 
freq.      62.75  E(vib)   ...       0.51 
freq.      74.84  E(vib)   ...       0.49 
freq.      82.73  E(vib)   ...       0.48 
freq.     114.15  E(vib)   ...       0.44 
freq.     134.67  E(vib)   ...       0.42 
freq.     188.41  E(vib)   ...       0.36 
freq.     240.94  E(vib)   ...       0.31 
freq.     285.63  E(vib)   ...       0.28 
freq.     387.67  E(vib)   ...       0.20 
freq.     403.16  E(vib)   ...       0.19 
freq.     447.23  E(vib)   ...       0.17 
freq.     466.13  E(vib)   ...       0.16 
freq.     567.73  E(vib)   ...       0.11 
freq.     586.54  E(vib)   ...       0.11 
freq.     674.34  E(vib)   ...       0.08 
freq.     686.36  E(vib)   ...       0.07 
freq.     749.58  E(vib)   ...       0.06 
freq.     759.41  E(vib)   ...       0.06 
freq.     817.07  E(vib)   ...       0.05 
freq.     832.24  E(vib)   ...       0.04 
freq.     901.32  E(vib)   ...       0.03 
freq.     961.15  E(vib)   ...       0.03 
freq.     980.68  E(vib)   ...       0.02 
freq.    1018.59  E(vib)   ...       0.02 
freq.    1022.93  E(vib)   ...       0.02 
freq.    1066.17  E(vib)   ...       0.02 
freq.    1101.58  E(vib)   ...       0.02 
freq.    1179.55  E(vib)   ...       0.01 
freq.    1186.19  E(vib)   ...       0.01 
freq.    1274.05  E(vib)   ...       0.01 
freq.    1292.23  E(vib)   ...       0.01 
freq.    1358.85  E(vib)   ...       0.01 
freq.    1398.24  E(vib)   ...       0.00 
freq.    1432.37  E(vib)   ...       0.00 
freq.    1460.52  E(vib)   ...       0.00 
freq.    1472.93  E(vib)   ...       0.00 
freq.    1490.19  E(vib)   ...       0.00 
freq.    1542.80  E(vib)   ...       0.00 
freq.    1625.72  E(vib)   ...       0.00 
freq.    1661.28  E(vib)   ...       0.00 
freq.    3049.22  E(vib)   ...       0.00 
freq.    3128.97  E(vib)   ...       0.00 
freq.    3131.36  E(vib)   ...       0.00 
freq.    3204.02  E(vib)   ...       0.00 
freq.    3245.78  E(vib)   ...       0.00 
freq.    3257.83  E(vib)   ...       0.00 

------------
INNER ENERGY
------------

The inner energy is: U= E(el) + E(ZPE) + E(vib) + E(rot) + E(trans)
    E(el)   - is the total energy from the electronic structure calculation
              = E(kin-el) + E(nuc-el) + E(el-el) + E(nuc-nuc)
    E(ZPE)  - the the zero temperature vibrational energy from the frequency calculation
    E(vib)  - the the finite temperature correction to E(ZPE) due to population
              of excited vibrational states
    E(rot)  - is the rotational thermal energy
    E(trans)- is the translational thermal energy

Summary of contributions to the inner energy U:
Electronic energy                ...   -990.26662365 Eh
Zero point energy                ...      0.12084556 Eh      75.83 kcal/mol
Thermal vibrational correction   ...      0.00854111 Eh       5.36 kcal/mol
Thermal rotational correction    ...      0.00141627 Eh       0.89 kcal/mol
Thermal translational correction ...      0.00141627 Eh       0.89 kcal/mol
-----------------------------------------------------------------------
Total thermal energy                   -990.13440443 Eh


Summary of corrections to the electronic energy:
(perhaps to be used in another calculation)
Total thermal correction                  0.01137365 Eh       7.14 kcal/mol
Non-thermal (ZPE) correction              0.12084556 Eh      75.83 kcal/mol
-----------------------------------------------------------------------
Total correction                          0.13221921 Eh      82.97 kcal/mol


--------
ENTHALPY
--------

The enthalpy is H = U + kB*T
                kB is Boltzmann's constant
Total free energy                 ...   -990.13440443 Eh 
Thermal Enthalpy correction       ...      0.00094421 Eh       0.59 kcal/mol
-----------------------------------------------------------------------
Total Enthalpy                    ...   -990.13346022 Eh


Note: Only C1 symmetry has been detected, increase convergence thresholds 
      if your molecule has a higher symmetry. Symmetry factor of 1.0 is   
      used for the rotational entropy correction. 
 

Note: Rotational entropy computed according to Herzberg 
Infrared and Raman Spectra, Chapter V,1, Van Nostrand Reinhold, 1945 
Point Group:  C1, Symmetry Number:   1  
Rotational constants in cm-1:     0.032469     0.027905     0.019285 

Vibrational entropy computed according to the QRRHO of S. Grimme
Chem.Eur.J. 2012 18 9955


-------
ENTROPY
-------

The entropy contributions are T*S = T*(S(el)+S(vib)+S(rot)+S(trans))
     S(el)   - electronic entropy
     S(vib)  - vibrational entropy
     S(rot)  - rotational entropy
     S(trans)- translational entropy
The entropies will be listed as multiplied by the temperature to get
units of energy

Electronic entropy                ...      0.00000000 Eh      0.00 kcal/mol
Vibrational entropy               ...      0.01532880 Eh      9.62 kcal/mol
Rotational entropy                ...      0.01468249 Eh      9.21 kcal/mol
Translational entropy             ...      0.01977419 Eh     12.41 kcal/mol
-----------------------------------------------------------------------
Final entropy term                ...      0.04978547 Eh     31.24 kcal/mol

In case the symmetry of your molecule has not been determined correctly
or in case you have a reason to use a different symmetry number we print 
out the resulting rotational entropy values for sn=1,12 :
 --------------------------------------------------------
|  sn= 1 | S(rot)=       0.01468249 Eh      9.21 kcal/mol|
|  sn= 2 | S(rot)=       0.01402803 Eh      8.80 kcal/mol|
|  sn= 3 | S(rot)=       0.01364520 Eh      8.56 kcal/mol|
|  sn= 4 | S(rot)=       0.01337357 Eh      8.39 kcal/mol|
|  sn= 5 | S(rot)=       0.01316288 Eh      8.26 kcal/mol|
|  sn= 6 | S(rot)=       0.01299074 Eh      8.15 kcal/mol|
|  sn= 7 | S(rot)=       0.01284519 Eh      8.06 kcal/mol|
|  sn= 8 | S(rot)=       0.01271912 Eh      7.98 kcal/mol|
|  sn= 9 | S(rot)=       0.01260791 Eh      7.91 kcal/mol|
|  sn=10 | S(rot)=       0.01250843 Eh      7.85 kcal/mol|
|  sn=11 | S(rot)=       0.01241844 Eh      7.79 kcal/mol|
|  sn=12 | S(rot)=       0.01233628 Eh      7.74 kcal/mol|
 --------------------------------------------------------


-------------------
GIBBS FREE ENERGY
-------------------

The Gibbs free energy is G = H - T*S

Total enthalpy                    ...   -990.13346022 Eh 
Total entropy correction          ...     -0.04978547 Eh    -31.24 kcal/mol
-----------------------------------------------------------------------
Final Gibbs free energy         ...   -990.18324569 Eh

For completeness - the Gibbs free energy minus the electronic energy
G-E(el)                           ...      0.08337796 Eh     52.32 kcal/mol



Timings for individual modules:

Sum of individual times         ...    53221.950 sec (= 887.033 min)
GTO integral calculation        ...       50.256 sec (=   0.838 min)   0.1 %
SCF iterations                  ...      989.265 sec (=  16.488 min)   1.9 %
SCF Gradient evaluation         ...      232.930 sec (=   3.882 min)   0.4 %
Geometry relaxation             ...        1.593 sec (=   0.027 min)   0.0 %
Numerical frequency calculation ...     2397.656 sec (=  39.961 min)   4.5 %
NEB Iterations                  ...    49550.249 sec (= 825.837 min)  93.1 %
                             ****ORCA TERMINATED NORMALLY****
TOTAL RUN TIME: 0 days 14 hours 46 minutes 15 seconds 111 msec
