
                                 *****************
                                 * O   R   C   A *
                                 *****************

                                            #,                                       
                                            ###                                      
                                            ####                                     
                                            #####                                    
                                            ######                                   
                                           ########,                                 
                                     ,,################,,,,,                         
                               ,,#################################,,                 
                          ,,##########################################,,             
                       ,#########################################, ''#####,          
                    ,#############################################,,   '####,        
                  ,##################################################,,,,####,       
                ,###########''''           ''''###############################       
              ,#####''   ,,,,##########,,,,          '''####'''          '####       
            ,##' ,,,,###########################,,,                        '##       
           ' ,,###''''                  '''############,,,                           
         ,,##''                                '''############,,,,        ,,,,,,###''
      ,#''                                            '''#######################'''  
     '                                                          ''''####''''         
             ,#######,   #######,   ,#######,      ##                                
            ,#'     '#,  ##    ##  ,#'     '#,    #''#        ######   ,####,        
            ##       ##  ##   ,#'  ##            #'  '#       #        #'  '#        
            ##       ##  #######   ##           ,######,      #####,   #    #        
            '#,     ,#'  ##    ##  '#,     ,#' ,#      #,         ##   #,  ,#        
             '#######'   ##     ##  '#######'  #'      '#     #####' # '####'        



                  #######################################################
                  #                        -***-                        #
                  #          Department of theory and spectroscopy      #
                  #    Directorship and core code : Frank Neese         #
                  #        Max Planck Institute fuer Kohlenforschung    #
                  #                Kaiser Wilhelm Platz 1               #
                  #                 D-45470 Muelheim/Ruhr               #
                  #                      Germany                        #
                  #                                                     #
                  #                  All rights reserved                #
                  #                        -***-                        #
                  #######################################################


                         Program Version 5.0.4 -  RELEASE  -


 With contributions from (in alphabetic order):
   Daniel Aravena         : Magnetic Suceptibility
   Michael Atanasov       : Ab Initio Ligand Field Theory (pilot matlab implementation)
   Alexander A. Auer      : GIAO ZORA, VPT2 properties, NMR spectrum
   Ute Becker             : Parallelization
   Giovanni Bistoni       : ED, misc. LED, open-shell LED, HFLD
   Martin Brehm           : Molecular dynamics
   Dmytro Bykov           : SCF Hessian
   Vijay G. Chilkuri      : MRCI spin determinant printing, contributions to CSF-ICE
   Dipayan Datta          : RHF DLPNO-CCSD density
   Achintya Kumar Dutta   : EOM-CC, STEOM-CC
   Dmitry Ganyushin       : Spin-Orbit,Spin-Spin,Magnetic field MRCI
   Miquel Garcia          : C-PCM and meta-GGA Hessian, CC/C-PCM, Gaussian charge scheme
   Yang Guo               : DLPNO-NEVPT2, F12-NEVPT2, CIM, IAO-localization
   Andreas Hansen         : Spin unrestricted coupled pair/coupled cluster methods
   Benjamin Helmich-Paris : MC-RPA, TRAH-SCF, COSX integrals
   Lee Huntington         : MR-EOM, pCC
   Robert Izsak           : Overlap fitted RIJCOSX, COSX-SCS-MP3, EOM
   Marcus Kettner         : VPT2
   Christian Kollmar      : KDIIS, OOCD, Brueckner-CCSD(T), CCSD density, CASPT2, CASPT2-K
   Simone Kossmann        : Meta GGA functionals, TD-DFT gradient, OOMP2, MP2 Hessian
   Martin Krupicka        : Initial AUTO-CI
   Lucas Lang             : DCDCAS
   Marvin Lechner         : AUTO-CI (C++ implementation), FIC-MRCC
   Dagmar Lenk            : GEPOL surface, SMD
   Dimitrios Liakos       : Extrapolation schemes; Compound Job, initial MDCI parallelization
   Dimitrios Manganas     : Further ROCIS development; embedding schemes
   Dimitrios Pantazis     : SARC Basis sets
   Anastasios Papadopoulos: AUTO-CI, single reference methods and gradients
   Taras Petrenko         : DFT Hessian,TD-DFT gradient, ASA, ECA, R-Raman, ABS, FL, XAS/XES, NRVS
   Peter Pinski           : DLPNO-MP2, DLPNO-MP2 Gradient
   Christoph Reimann      : Effective Core Potentials
   Marius Retegan         : Local ZFS, SOC
   Christoph Riplinger    : Optimizer, TS searches, QM/MM, DLPNO-CCSD(T), (RO)-DLPNO pert. Triples
   Tobias Risthaus        : Range-separated hybrids, TD-DFT gradient, RPA, STAB
   Michael Roemelt        : Original ROCIS implementation
   Masaaki Saitow         : Open-shell DLPNO-CCSD energy and density
   Barbara Sandhoefer     : DKH picture change effects
   Avijit Sen             : IP-ROCIS
   Kantharuban Sivalingam : CASSCF convergence, NEVPT2, FIC-MRCI
   Bernardo de Souza      : ESD, SOC TD-DFT
   Georgi Stoychev        : AutoAux, RI-MP2 NMR, DLPNO-MP2 response
   Willem Van den Heuvel  : Paramagnetic NMR
   Boris Wezisla          : Elementary symmetry handling
   Frank Wennmohs         : Technical directorship


 We gratefully acknowledge several colleagues who have allowed us to
 interface, adapt or use parts of their codes:
   Stefan Grimme, W. Hujo, H. Kruse, P. Pracht,  : VdW corrections, initial TS optimization,
                  C. Bannwarth, S. Ehlert          DFT functionals, gCP, sTDA/sTD-DF
   Ed Valeev, F. Pavosevic, A. Kumar             : LibInt (2-el integral package), F12 methods
   Garnet Chan, S. Sharma, J. Yang, R. Olivares  : DMRG
   Ulf Ekstrom                                   : XCFun DFT Library
   Mihaly Kallay                                 : mrcc  (arbitrary order and MRCC methods)
   Jiri Pittner, Ondrej Demel                    : Mk-CCSD
   Frank Weinhold                                : gennbo (NPA and NBO analysis)
   Christopher J. Cramer and Donald G. Truhlar   : smd solvation model
   Lars Goerigk                                  : TD-DFT with DH, B97 family of functionals
   V. Asgeirsson, H. Jonsson                     : NEB implementation
   FAccTs GmbH                                   : IRC, NEB, NEB-TS, DLPNO-Multilevel, CI-OPT
                                                   MM, QMMM, 2- and 3-layer-ONIOM, Crystal-QMMM,
                                                   LR-CPCM, SF, NACMEs, symmetry and pop. for TD-DFT,
                                                   nearIR, NL-DFT gradient (VV10), updates on ESD,
                                                   ML-optimized integration grids
   S Lehtola, MJT Oliveira, MAL Marques          : LibXC Library
   Liviu Ungur et al                             : ANISO software


 Your calculation uses the libint2 library for the computation of 2-el integrals
 For citations please refer to: http://libint.valeyev.net

 Your ORCA version has been built with support for libXC version: 5.1.0
 For citations please refer to: https://tddft.org/programs/libxc/

 This ORCA versions uses:
   CBLAS   interface :  Fast vector & matrix operations
   LAPACKE interface :  Fast linear algebra routines
   SCALAPACK package :  Parallel linear algebra routines
   Shared memory     :  Shared parallel matrices
   BLAS/LAPACK       :  OpenBLAS 0.3.15  USE64BITINT DYNAMIC_ARCH NO_AFFINITY SkylakeX SINGLE_THREADED
        Core in use  :  SkylakeX
   Copyright (c) 2011-2014, The OpenBLAS Project




***************************************
The coordinates will be read from file: reactants.xyz
***************************************


Your calculation utilizes the SMD solvation module
Please cite in your paper:
A.V. Marenich, C.J. Cramer, D.G. Truhlar J. Phys. Chem. B, 113, (2009), 6378 

XCFun DFT library Copyright 2009-2010 Ulf Ekstrom and contributors.
See http://admol.org/xcfun for more information.
This is free software; see the source code for copying conditions.
There is ABSOLUTELY NO WARRANTY; not even for MERCHANTABILITY or FITNESS FOR A PARTICULAR PURPOSE.
For details see the documentation.
Scientific users of this library should cite U. Ekstrom, L. Visscher, R. Bast, A. J. Thorvaldsen and K. Ruud;
J.Chem.Theor.Comp. 2010, DOI: 10.1021/ct100117s
XCFun Version 0.99 

================================================================================

----- Orbital basis set information -----
Your calculation utilizes the basis: 6-311++G**
   H, Li - Ne  : R. Krishnan, J. S. Binkley, R. Seeger and J. A. Pople, J. Chem. Phys. 72, 650 (1980).
   Na - Ar     : A. D. McLean and G. S. Chandler J. Chem. Phys. 72, 5639, (1980).
   K  - Ca     : J.-P. Blaudeau, M. P. McGrath, L. A. Curtiss and L. Radom, J. Chem. Phys. 107, 5016 (1997).
   Ga - Kr     : L. A. Curtiss, M. P. McGrath, J.-P. Blandeau, N. E. Davis, R. C. Binning and L. Radom, J. Chem. Phys. 103, 6104 (1995).
   Pol./Diff.
   H, Li - Cl  : T. Clark, J. Chandrasekhar and P. v. R. Schleyer, J. Comp. Chem. 4, 294 (1983).
   H - Ne      : M. J. Frisch, J. A. Pople and J. S. Binkley, J. Chem. Phys. 80, 3265 (1984).

----- AuxJ basis set information -----
Your calculation utilizes the auxiliary basis: def2/J
   F. Weigend, Phys. Chem. Chem. Phys. 8, 1057 (2006).

================================================================================
                                        WARNINGS
                       Please study these warnings very carefully!
================================================================================


WARNING: Geometry Optimization
  ===> : Switching off AutoStart
         For restart on a previous wavefunction, please use MOREAD

INFO   : the flag for use of the SHARK integral package has been found!

================================================================================
                                       INPUT FILE
================================================================================
NAME = structure_opt.inp
|  1> !wb97x 6-311++G** OPT CPCM(WATER)
|  2> %maxcore  3500
|  3> %pal
|  4> nprocs 24
|  5> end
|  6> %cpcm
|  7> smd true
|  8> SMDsolvent "water"
|  9> end
| 10> %geom
| 11> ConstrainFragments {1} end
| 12> ConstrainFragments {4} end
| 13> ConnectFragments
| 14> { 1 2 C 5 7 }
| 15> { 1 2 C 0 9 }
| 16> { 2 3 C 13 5 }
| 17> { 3 4 C 13 17 }
| 18> end
| 19> end
| 20> * XYZfile -1 1 reactants.xyz
| 21> %geom
| 22> Fragments
| 23> 1 {0:5} end
| 24> 2 {6:12} end
| 25> 3 {13:16} end
| 26> 4 {17} end
| 27> end
| 28> end
| 29> 
| 30>                          ****END OF INPUT****
================================================================================

                       *****************************
                       * Geometry Optimization Run *
                       *****************************

Geometry optimization settings:
Update method            Update   .... BFGS
Choice of coordinates    CoordSys .... Z-matrix Internals
Initial Hessian          InHess   .... Almoef's Model

Convergence Tolerances:
Energy Change            TolE     ....  5.0000e-06 Eh
Max. Gradient            TolMAXG  ....  3.0000e-04 Eh/bohr
RMS Gradient             TolRMSG  ....  1.0000e-04 Eh/bohr
Max. Displacement        TolMAXD  ....  4.0000e-03 bohr
RMS Displacement         TolRMSD  ....  2.0000e-03 bohr
Strict Convergence                ....  False
------------------------------------------------------------------------------
                        ORCA OPTIMIZATION COORDINATE SETUP
------------------------------------------------------------------------------

The optimization will be done in new redundant internal coordinates
Making redundant internal coordinates   ...  (new redundants) done
Evaluating the initial hessian          ...  (Almloef) done
Evaluating the coordinates              ...  done
Calculating the B-matrix                .... done
Calculating the G-matrix                .... done
Diagonalizing the G-matrix              .... done
Imposing constraints:
 Iter   0:  RMS(Cart)=    0.0000000000 RMS(Int)=    0.0000000000
CONVERGED
Small eigenvalue found = 1.118e-02
Small eigenvalue found = 2.458e-02
The first mode is                       ....   72
The number of degrees of freedom        ....   48
Storing new coordinates                 .... done

    -----------------------------------------------------------------
                    Redundant Internal Coordinates


    -----------------------------------------------------------------
         Definition                    Initial Value    Approx d2E/dq
    -----------------------------------------------------------------
      1. B(N   1,C   0)                  1.3611         0.622347   
      2. B(C   2,N   1)                  1.3582         0.628875   
      3. B(C   3,C   2)                  1.3949         0.613658   
      4. B(C   4,C   3)                  1.3934         0.616971   
      5. B(C   5,C   0)                  1.4122         0.575774   
      6. B(C   5,C   4)                  1.4061         0.588917   
      7. B(O   7,C   5)                  2.3435         0.016853 C 
      8. B(O   7,N   6)                  1.2480         0.844503   
      9. B(O   8,N   6)                  1.3769         0.525866   
     10. B(F   9,C   0)                  1.3500         0.602260 C 
     11. B(F   9,N   6)                  2.8678         0.002044   
     12. B(F   9,O   7)                  2.5821         0.005837   
     13. B(H  11,H  10)                  2.4818         0.000415   
     14. B(H  12,O   8)                  2.5152         0.001717   
     15. B(H  12,H  11)                  2.4663         0.000439   
     16. B(H  12,N   6)                  2.7029         0.000861   
     17. B(C  13,O   7)                  8.6217         0.000000 C 
     18. B(H  14,C  13)                  1.0936         0.355392   
     19. B(H  15,C  13)                  1.0935         0.355528   
     20. B(H  16,C  13)                  1.0940         0.354801   
     21. B(S  17,C  13)                  1.8030         0.369495 C 
     22. A(N   1,C   0,C   5)          120.1571         0.425830   
     23. A(N   1,C   0,F   9)          118.6704         0.424592 C 
     24. A(C   5,C   0,F   9)          121.1725         0.421471 C 
     25. A(C   0,N   1,C   2)          121.9524         0.429796   
     26. A(N   1,C   2,C   3)          120.0262         0.431531   
     27. A(C   2,C   3,C   4)          119.3498         0.432882   
     28. A(C   3,C   4,C   5)          120.4718         0.429694   
     29. A(C   0,C   5,O   7)           94.5313         0.237820 C 
     30. A(C   0,C   5,C   4)          118.0425         0.424407   
     31. A(C   4,C   5,O   7)          147.4261         0.238582 C 
     32. A(O   7,N   6,F   9)           64.2090         0.186619   
     33. A(O   8,N   6,H  12)           67.2752         0.152046   
     34. A(O   7,N   6,H  12)          174.2234         0.159181   
     35. A(F   9,N   6,H  12)          110.0144         0.106848   
     36. A(O   7,N   6,O   8)          118.5014         0.433822   
     37. A(N   6,O   7,F   9)           89.9947         0.212791   
     38. A(C   5,O   7,C  13)          126.6100         0.089359   
     39. A(C   5,O   7,N   6)           31.7456         0.248611 C 
     40. A(C   5,O   7,F   9)           58.2491         0.140475 C 
     41. A(N   6,O   7,C  13)          132.7841         0.089863 C 
     42. A(F   9,O   7,C  13)           92.0228         0.089278 C 
     43. A(N   6,O   8,H  12)           82.3972         0.162696   
     44. A(N   6,F   9,O   7)           25.7962         0.120482   
     45. A(C   0,F   9,O   7)           86.0471         0.203997 C 
     46. A(C   0,F   9,N   6)           60.2509         0.179684 C 
     47. A(H  10,H  11,H  12)          119.7063         0.095112   
     48. A(N   6,H  12,O   8)           30.3275         0.103999   
     49. A(N   6,H  12,H  11)          126.7169         0.097913   
     50. A(O   8,H  12,H  11)          157.0445         0.099419   
     51. A(H  14,C  13,H  16)          108.9502         0.289565   
     52. A(H  15,C  13,H  16)          108.9632         0.289582   
     53. A(O   7,C  13,S  17)           17.4993         0.089779   
     54. A(H  16,C  13,S  17)          109.8914         0.339372 C 
     55. A(O   7,C  13,H  15)          126.3168         0.089624 C 
     56. A(O   7,C  13,H  16)          105.8669         0.089624 C 
     57. A(H  14,C  13,S  17)          109.9795         0.339467 C 
     58. A(H  15,C  13,S  17)          109.9840         0.339488 C 
     59. A(O   7,C  13,H  14)           96.3432         0.089624 C 
     60. A(H  14,C  13,H  15)          109.0462         0.289658   
     61. D(C   2,N   1,C   0,C   5)     -0.1041         0.028432   
     62. D(C   2,N   1,C   0,F   9)    179.9112         0.028432 C 
     63. D(C   3,C   2,N   1,C   0)      0.1066         0.025783   
     64. D(C   4,C   3,C   2,N   1)     -0.0956         0.020965   
     65. D(C   5,C   4,C   3,C   2)      0.0854         0.021202   
     66. D(O   7,C   5,C   0,N   1)    179.9933         0.022761 C 
     67. D(O   7,C   5,C   4,C   3)   -179.9036         0.021656 C 
     68. D(O   7,C   5,C   0,F   9)     -0.0223         0.022761 C 
     69. D(C   4,C   5,C   0,N   1)      0.0896         0.022761   
     70. D(C   4,C   5,C   0,F   9)   -179.9260         0.022761 C 
     71. D(C   0,C   5,C   4,C   3)     -0.0818         0.021656   
     72. D(F   9,O   7,C   5,C   0)      0.0117         0.001519 C 
     73. D(F   9,O   7,C   5,C   4)    179.8539         0.001519 C 
     74. D(C  13,O   7,N   6,F   9)    -92.7518         0.085936 C 
     75. D(C  13,O   7,C   5,C   0)    -65.9060         0.001519   
     76. D(C  13,O   7,C   5,C   4)    113.9362         0.001519   
     77. D(N   6,O   7,C   5,C   4)     -0.1099         0.001519 C 
     78. D(C  13,O   7,N   6,O   8)     87.2414         0.085936 C 
     79. D(F   9,O   7,N   6,H  12)      0.1568         0.085936   
     80. D(C   5,O   7,N   6,O   8)   -179.9761         0.085936 C 
     81. D(C   5,O   7,N   6,H  12)      0.1876         0.085936 C 
     82. D(F   9,O   7,N   6,O   8)    179.9932         0.085936   
     83. D(C   5,O   7,N   6,F   9)      0.0308         0.085936 C 
     84. D(N   6,O   7,C   5,C   0)   -179.9521         0.001519 C 
     85. D(C  13,O   7,N   6,H  12)    -92.5950         0.085936 C 
     86. D(H  12,O   8,N   6,O   7)   -179.9821         0.025649   
     87. D(O   7,F   9,N   6,H  12)   -179.9832         0.001500   
     88. D(N   6,F   9,C   0,C   5)      0.0236         0.032536 C 
     89. D(O   7,F   9,C   0,N   1)   -179.9952         0.032536 C 
     90. D(N   6,F   9,C   0,N   1)   -179.9918         0.032536 C 
     91. D(O   7,F   9,C   0,C   5)      0.0202         0.032536 C 
     92. D(C   0,F   9,N   6,O   7)   -179.9922         0.001500 C 
     93. D(O   7,F   9,O   8,H  12)   -179.9897         0.001500   
     94. D(N   6,F   9,O   7,C   5)     -0.0190         0.001503 C 
     95. D(N   6,F   9,O   7,C  13)    132.8170         0.001503 C 
     96. D(C   0,F   9,O   7,N   6)      0.0068         0.001503 C 
     97. D(C   0,F   9,O   7,C   5)     -0.0123         0.001503 C 
     98. D(C   0,F   9,N   6,H  12)      0.0246         0.001500 C 
     99. D(C   0,F   9,O   7,C  13)    132.8238         0.001503   
    100. D(C   0,F   9,O   8,H  12)      0.0232         0.001500 C 
    101. D(O   8,H  12,N   6,O   7)    179.8441         0.001501   
    102. D(N   6,H  12,H  11,H  10)      0.0466         0.001502   
    103. D(H  11,H  12,N   6,O   7)     -0.1748         0.001501   
    104. D(H  11,H  12,N   6,O   8)    179.9811         0.001501   
    105. D(H  11,H  12,N   6,F   9)     -0.0245         0.001501   
    106. D(O   8,H  12,N   6,F   9)    179.9943         0.001501   
    107. D(H  11,H  12,O   8,N   6)     -0.0388         0.001502   
    108. D(O   8,H  12,H  11,H  10)      0.0710         0.001502   
    109. D(H  14,C  13,O   7,N   6)   -118.4560         0.001500 C 
    110. D(S  17,C  13,O   7,F   9)      7.4241         0.001500   
    111. D(H  14,C  13,O   7,C   5)   -159.3522         0.001500   
    112. D(H  15,C  13,O   7,N   6)    122.2558         0.001500 C 
    113. D(H  15,C  13,O   7,F   9)     30.3898         0.001500 C 
    114. D(H  15,C  13,O   7,C   5)     81.3596         0.001500   
    115. D(H  16,C  13,O   7,N   6)     -6.6610         0.001500 C 
    116. D(H  16,C  13,O   7,F   9)    -98.5270         0.001500 C 
    117. D(H  16,C  13,O   7,C   5)    -47.5572         0.001500   
    118. D(H  14,C  13,O   7,F   9)    149.6780         0.001500 C 
    119. D(S  17,C  13,O   7,N   6)     99.2901         0.001500   
    120. D(S  17,C  13,O   7,C   5)     58.3939         0.001500   
    -----------------------------------------------------------------

Number of atoms                         .... 18
Number of degrees of freedom            .... 120

         *************************************************************
         *                GEOMETRY OPTIMIZATION CYCLE   1            *
         *************************************************************
---------------------------------
CARTESIAN COORDINATES (ANGSTROEM)
---------------------------------
  C      0.000000    0.000000    1.820000
  N      1.178000   -0.196000    2.473000
  C      1.255000   -0.207000    3.829000
  C      0.105000   -0.016000    4.595000
  C     -1.116000    0.187000    3.955000
  C     -1.192000    0.198000    2.551000
  N     -2.456000    0.409000    1.893000
  O     -2.541000    0.423000    0.648000
  O     -3.602000    0.600000    2.632000
  F      0.000000    0.000000    0.470000
  H      2.209000   -0.366000    4.313000
  H      0.163000   -0.026000    5.676000
  H     -2.005000    0.335000    4.557000
  C     -2.201000    6.773000   -5.174000
  H     -3.210000    6.628000   -5.570000
  H     -1.498000    6.850000   -6.008000
  H     -2.175000    7.704000   -4.600000
  S     -1.750000    5.386000   -4.114000

----------------------------
CARTESIAN COORDINATES (A.U.)
----------------------------
  NO LB      ZA    FRAG     MASS         X           Y           Z
   0 C     6.0000    1    12.011    0.000000    0.000000    3.439302
   1 N     7.0000    1    14.007    2.226097   -0.370386    4.673293
   2 C     6.0000    1    12.011    2.371606   -0.391173    7.235761
   3 C     6.0000    1    12.011    0.198421   -0.030236    8.683292
   4 C     6.0000    1    12.011   -2.108934    0.353379    7.473867
   5 C     6.0000    1    12.011   -2.252554    0.374166    4.820691
   6 N     7.0000    2    14.007   -4.641167    0.772898    3.577252
   7 O     8.0000    2    15.999   -4.801794    0.799354    1.224543
   8 O     8.0000    2    15.999   -6.806794    1.133836    4.973759
   9 F     9.0000    2    18.998    0.000000    0.000000    0.888171
  10 H     1.0000    2     1.008    4.174405   -0.691640    8.150389
  11 H     1.0000    2     1.008    0.308025   -0.049133   10.726086
  12 H     1.0000    2     1.008   -3.788901    0.633058    8.611482
  13 C     6.0000    3    12.011   -4.159287   12.799115   -9.777443
  14 H     1.0000    3     1.008   -6.066021   12.525105  -10.525775
  15 H     1.0000    3     1.008   -2.830810   12.944624  -11.353475
  16 H     1.0000    3     1.008   -4.110154   14.558450   -8.692740
  17 S    16.0000    4    32.060   -3.307021   10.178065   -7.774333

----------------------------------------------
CARTESIAN COORDINATES OF FRAGMENTS (ANGSTROEM)
----------------------------------------------

 FRAGMENT 1 
  C     0.000000    0.000000    1.820000
  N     1.178000   -0.196000    2.473000
  C     1.255000   -0.207000    3.829000
  C     0.105000   -0.016000    4.595000
  C    -1.116000    0.187000    3.955000
  C    -1.192000    0.198000    2.551000

 FRAGMENT 2 
  N    -2.456000    0.409000    1.893000
  O    -2.541000    0.423000    0.648000
  O    -3.602000    0.600000    2.632000
  F     0.000000    0.000000    0.470000
  H     2.209000   -0.366000    4.313000
  H     0.163000   -0.026000    5.676000
  H    -2.005000    0.335000    4.557000

 FRAGMENT 3 
  C    -2.201000    6.773000   -5.174000
  H    -3.210000    6.628000   -5.570000
  H    -1.498000    6.850000   -6.008000
  H    -2.175000    7.704000   -4.600000

 FRAGMENT 4 
  S    -1.750000    5.386000   -4.114000

--------------------------------
INTERNAL COORDINATES (ANGSTROEM)
--------------------------------
 C      0   0   0     0.000000000000     0.00000000     0.00000000
 N      1   0   0     1.361069065110     0.00000000     0.00000000
 C      2   1   0     1.358228993948   121.95243626     0.00000000
 C      3   2   1     1.394896770374   120.02620694     0.10655554
 C      4   3   2     1.393431017309   119.34983770   359.90435571
 C      5   4   3     1.406098502951   120.47178172     0.08537773
 N      6   5   4     1.440548853736   120.30882193   180.03842131
 O      7   6   5     1.247976762604   121.13704526   179.93147861
 O      7   6   5     1.376923382037   120.36156660   359.90709941
 F      1   2   3     1.350000000000   118.67037638   179.91115691
 H      3   2   1     1.081504969938   119.86701156   179.98746005
 H      4   3   2     1.082601034546   120.19197482   179.89186186
 H      5   4   3     1.083803026384   118.91636700   180.02085854
 C      8   7   6     8.621704239882   132.78414107   267.21744962
 H     14   8   7     1.093582187126    96.34321035   241.54400748
 H     14   8   7     1.093477937592   126.31680957   122.25582492
 H     14   8   7     1.094035191390   105.86688152   353.33897754
 S     14   8   7     1.802989184660    17.49934944    99.29012403

---------------------------
INTERNAL COORDINATES (A.U.)
---------------------------
 C      0   0   0     0.000000000000     0.00000000     0.00000000
 N      1   0   0     2.572047782411     0.00000000     0.00000000
 C      2   1   0     2.566680825712   121.95243626     0.00000000
 C      3   2   1     2.635972881098   120.02620694     0.10655554
 C      4   3   2     2.633203009226   119.34983770   359.90435571
 C      5   4   3     2.657141087893   120.47178172     0.08537773
 N      6   5   4     2.722242816095   120.30882193   180.03842131
 O      7   6   5     2.358334302820   121.13704526   179.93147861
 O      7   6   5     2.602008099442   120.36156660   359.90709941
 F      1   2   3     2.551130280794   118.67037638   179.91115691
 H      3   2   1     2.043748205657   119.86701156   179.98746005
 H      4   3   2     2.045819467592   120.19197482   179.89186186
 H      5   4   3     2.048090902982   118.91636700   180.02085854
 C      8   7   6    16.292659821045   132.78414107   267.21744962
 H     14   8   7     2.066570838603    96.34321035   241.54400748
 H     14   8   7     2.066373835534   126.31680957   122.25582492
 H     14   8   7     2.067426892599   105.86688152   353.33897754
 S     14   8   7     3.407155781429    17.49934944    99.29012403

---------------------
BASIS SET INFORMATION
---------------------
There are 6 groups of distinct atoms

 Group   1 Type C   : 12s6p1d contracted to 5s4p1d pattern {63111/3111/1}
 Group   2 Type N   : 12s6p1d contracted to 5s4p1d pattern {63111/3111/1}
 Group   3 Type O   : 12s6p1d contracted to 5s4p1d pattern {63111/3111/1}
 Group   4 Type F   : 12s6p1d contracted to 5s4p1d pattern {63111/3111/1}
 Group   5 Type H   : 6s1p contracted to 4s1p pattern {3111/1}
 Group   6 Type S   : 14s10p1d contracted to 7s6p1d pattern {6311111/421111/1}

Atom   0C    basis set group =>   1
Atom   1N    basis set group =>   2
Atom   2C    basis set group =>   1
Atom   3C    basis set group =>   1
Atom   4C    basis set group =>   1
Atom   5C    basis set group =>   1
Atom   6N    basis set group =>   2
Atom   7O    basis set group =>   3
Atom   8O    basis set group =>   3
Atom   9F    basis set group =>   4
Atom  10H    basis set group =>   5
Atom  11H    basis set group =>   5
Atom  12H    basis set group =>   5
Atom  13C    basis set group =>   1
Atom  14H    basis set group =>   5
Atom  15H    basis set group =>   5
Atom  16H    basis set group =>   5
Atom  17S    basis set group =>   6
---------------------------------
AUXILIARY/J BASIS SET INFORMATION
---------------------------------
There are 6 groups of distinct atoms

 Group   1 Type C   : 12s5p4d2f1g contracted to 6s4p3d1f1g pattern {711111/2111/211/2/1}
 Group   2 Type N   : 12s5p4d2f1g contracted to 6s4p3d1f1g pattern {711111/2111/211/2/1}
 Group   3 Type O   : 12s5p4d2f1g contracted to 6s4p3d1f1g pattern {711111/2111/211/2/1}
 Group   4 Type F   : 12s5p4d2f1g contracted to 6s4p3d1f1g pattern {711111/2111/211/2/1}
 Group   5 Type H   : 5s2p1d contracted to 3s1p1d pattern {311/2/1}
 Group   6 Type S   : 14s5p5d2f1g contracted to 8s4p3d1f1g pattern {71111111/2111/311/2/1}

Atom   0C    basis set group =>   1
Atom   1N    basis set group =>   2
Atom   2C    basis set group =>   1
Atom   3C    basis set group =>   1
Atom   4C    basis set group =>   1
Atom   5C    basis set group =>   1
Atom   6N    basis set group =>   2
Atom   7O    basis set group =>   3
Atom   8O    basis set group =>   3
Atom   9F    basis set group =>   4
Atom  10H    basis set group =>   5
Atom  11H    basis set group =>   5
Atom  12H    basis set group =>   5
Atom  13C    basis set group =>   1
Atom  14H    basis set group =>   5
Atom  15H    basis set group =>   5
Atom  16H    basis set group =>   5
Atom  17S    basis set group =>   6


           ************************************************************
           *        Program running with 24 parallel MPI-processes    *
           *              working on a common directory               *
           ************************************************************
------------------------------------------------------------------------------
                           ORCA GTO INTEGRAL CALCULATION
                           -- RI-GTO INTEGRALS CHOSEN --
------------------------------------------------------------------------------
------------------------------------------------------------------------------
                   ___                                                        
                  /   \      - P O W E R E D   B Y -                         
                 /     \                                                     
                 |  |  |   _    _      __       _____    __    __             
                 |  |  |  | |  | |    /  \     |  _  \  |  |  /  |          
                  \  \/   | |  | |   /    \    | | | |  |  | /  /          
                 / \  \   | |__| |  /  /\  \   | |_| |  |  |/  /          
                |  |  |   |  __  | /  /__\  \  |    /   |      \           
                |  |  |   | |  | | |   __   |  |    \   |  |\   \          
                \     /   | |  | | |  |  |  |  | |\  \  |  | \   \       
                 \___/    |_|  |_| |__|  |__|  |_| \__\ |__|  \__/        
                                                                              
                      - O R C A' S   B I G   F R I E N D -                    
                                      &                                       
                       - I N T E G R A L  F E E D E R -                       
                                                                              
 v1 FN, 2020, v2 2021                                                         
------------------------------------------------------------------------------


Reading SHARK input file structure_opt.SHARKINP.tmp ... ok
----------------------
SHARK INTEGRAL PACKAGE
----------------------

Number of atoms                             ...     18
Number of basis functions                   ...    314
Number of shells                            ...    154
Maximum angular momentum                    ...      2
Integral batch strategy                     ... SHARK/LIBINT Hybrid
RI-J (if used) integral strategy            ... SPLIT-RIJ (Revised 2003 algorithm where possible)
Printlevel                                  ...      1
Contraction scheme used                     ... SEGMENTED contraction
Coulomb Range Separation                    ... NOT USED
Exchange Range Separation                   ... Long Range
   Mu parameter                             ...  0.300000
   Scaling (regular/separated)              ...  0.157706  0.842294
Finite Nucleus Model                        ... NOT USED
Auxiliary Coulomb fitting basis             ... AVAILABLE
   # of basis functions in Aux-J            ...    656
   # of shells in Aux-J                     ...    212
   Maximum angular momentum in Aux-J        ...      4
Auxiliary J/K fitting basis                 ... NOT available
Auxiliary Correlation fitting basis         ... NOT available
Auxiliary 'external' fitting basis          ... NOT available
Integral threshold                          ...     2.500000e-11
Primitive cut-off                           ...     2.500000e-12
Primitive pair pre-selection threshold      ...     2.500000e-12

Calculating pre-screening integrals         ... done (  0.0 sec) Dimension = 154
Organizing shell pair data                  ... done (  0.1 sec)
Shell pair information
Total number of shell pairs                 ...     11935
Shell pairs after pre-screening             ...      8501
Total number of primitive shell pairs       ...     38500
Primitive shell pairs kept                  ...     19642
          la=0 lb=0:   2588 shell pairs
          la=1 lb=0:   3498 shell pairs
          la=1 lb=1:   1215 shell pairs
          la=2 lb=0:    675 shell pairs
          la=2 lb=1:    473 shell pairs
          la=2 lb=2:     52 shell pairs

Calculating one electron integrals          ... done (  0.0 sec)
Calculating RI/J V-Matrix + Cholesky decomp.... done (  0.0 sec)
Calculating Nuclear repulsion               ... done (  0.0 sec) ENN=    655.744974319589 Eh

SHARK setup successfully completed in   0.4 seconds

Maximum memory used throughout the entire GTOINT-calculation: 17.3 MB


           ************************************************************
           *        Program running with 24 parallel MPI-processes    *
           *              working on a common directory               *
           ************************************************************
-------------------------------------------------------------------------------
                                 ORCA SCF
-------------------------------------------------------------------------------

------------
SCF SETTINGS
------------
Hamiltonian:
 Density Functional     Method          .... DFT(GTOs)
 Exchange Functional    Exchange        .... WB97X
 Correlation Functional Correlation     .... WB97X
 Gradients option       PostSCFGGA      .... off
 Hybrid DFT is turned on
   Fraction HF Exchange ScalHFX         ....  0.157706
   Scaling of DF-GGA-X  ScalDFX         ....  0.000000
   Scaling of DF-GGA-C  ScalDFC         ....  1.000000
   Scaling of DF-LDA-C  ScalLDAC        ....  1.000000
   Perturbative correction              ....  0.000000
   Density functional embedding theory  .... OFF
 Long-range corrected/Screened/Range-Separated Hybrid DFT is turned on
   Amount of maximum screened exact exchange              ....  0.842294
   Range separation parameter mu (erf(mu*r12)/r12)        ....  0.300000
 RI-approximation to the Coulomb term is turned on
   Number of AuxJ basis functions       .... 656
   RIJ-COSX (HFX calculated with COS-X)).... on


General Settings:
 Integral files         IntName         .... structure_opt
 Hartree-Fock type      HFTyp           .... RHF
 Total Charge           Charge          ....   -1
 Multiplicity           Mult            ....    1
 Number of Electrons    NEL             ....   98
 Basis Dimension        Dim             ....  314
 Nuclear Repulsion      ENuc            ....    655.7449743196 Eh

Convergence Acceleration:
 DIIS                   CNVDIIS         .... on
   Start iteration      DIISMaxIt       ....    12
   Startup error        DIISStart       ....  0.200000
   # of expansion vecs  DIISMaxEq       ....     5
   Bias factor          DIISBfac        ....   1.050
   Max. coefficient     DIISMaxC        ....  10.000
 Trust-Rad. Augm. Hess. CNVTRAH         .... auto
   Auto Start mean grad. ratio tolernc. ....  1.125000
   Auto Start start iteration           ....    20
   Auto Start num. interpolation iter.  ....    10
   Max. Number of Micro iterations      ....    16
   Max. Number of Macro iterations      .... Maxiter - #DIIS iter
   Number of Davidson start vectors     ....     2
   Converg. threshold I  (grad. norm)   ....   1.000e-05
   Converg. threshold II (energy diff.) ....   1.000e-08
   Grad. Scal. Fac. for Micro threshold ....   0.100
   Minimum threshold for Micro iter.    ....   0.010
   NR start threshold (gradient norm)   ....   0.001
   Initial trust radius                 ....   0.400
   Minimum AH scaling param. (alpha)    ....   1.000
   Maximum AH scaling param. (alpha)    .... 1000.000
   Orbital update algorithm             .... Taylor
   White noise on init. David. guess    .... on
   Maximum white noise                  ....   0.010
   Quad. conv. algorithm                .... NR
 SOSCF                  CNVSOSCF        .... on
   Start iteration      SOSCFMaxIt      ....   150
   Startup grad/error   SOSCFStart      ....  0.003300
 Level Shifting         CNVShift        .... on
   Level shift para.    LevelShift      ....    0.2500
   Turn off err/grad.   ShiftErr        ....    0.0010
 Zerner damping         CNVZerner       .... off
 Static damping         CNVDamp         .... on
   Fraction old density DampFac         ....    0.7000
   Max. Damping (<1)    DampMax         ....    0.9800
   Min. Damping (>=0)   DampMin         ....    0.0000
   Turn off err/grad.   DampErr         ....    0.1000
 Fernandez-Rico         CNVRico         .... off

SCF Procedure:
 Maximum # iterations   MaxIter         ....   125
 SCF integral mode      SCFMode         .... Direct
   Integral package                     .... SHARK and LIBINT hybrid scheme
 Reset frequency        DirectResetFreq ....    20
 Integral Threshold     Thresh          ....  2.500e-11 Eh
 Primitive CutOff       TCut            ....  2.500e-12 Eh

Convergence Tolerance:
 Convergence Check Mode ConvCheckMode   .... Total+1el-Energy
 Convergence forced     ConvForced      .... 0
 Energy Change          TolE            ....  1.000e-08 Eh
 1-El. energy change                    ....  1.000e-05 Eh
 Orbital Gradient       TolG            ....  1.000e-05
 Orbital Rotation angle TolX            ....  1.000e-05
 DIIS Error             TolErr          ....  5.000e-07


Diagonalization of the overlap matrix:
Smallest eigenvalue                        ... 4.285e-06
Time for diagonalization                   ...    0.030 sec
Threshold for overlap eigenvalues          ... 1.000e-08
Number of eigenvalues below threshold      ... 0
Time for construction of square roots      ...    0.023 sec
Total time needed                          ...    0.054 sec

Time for model grid setup =    0.408 sec

------------------------------
INITIAL GUESS: MODEL POTENTIAL
------------------------------
Loading Hartree-Fock densities                     ... done
Calculating cut-offs                               ... done
Initializing the effective Hamiltonian             ... done
Setting up the integral package (SHARK)            ... done
Starting the Coulomb interaction                   ... done (   0.1 sec)
Reading the grid                                   ... done
Mapping shells                                     ... done
Starting the XC term evaluation                    ... done (   0.0 sec)
  promolecular density results
     # of electrons  =     96.995704689
     EX              =    -96.552307899
     EC              =     -3.327210519
     EX+EC           =    -99.879518419
Transforming the Hamiltonian                       ... done (   0.0 sec)
Diagonalizing the Hamiltonian                      ... done (   0.0 sec)
Back transforming the eigenvectors                 ... done (   0.0 sec)
Now organizing SCF variables                       ... done
                      ------------------
                      INITIAL GUESS DONE (   0.6 sec)
                      ------------------
-------------------
DFT GRID GENERATION
-------------------

General Integration Accuracy     IntAcc      ... 4.388
Radial Grid Type                 RadialGrid  ... OptM3 with GC (2021)
Angular Grid (max. ang.)         AngularGrid ... 4 (Lebedev-302)
Angular grid pruning method      GridPruning ... 4 (adaptive)
Weight generation scheme         WeightScheme... Becke
Basis function cutoff            BFCut       ... 1.0000e-11
Integration weight cutoff        WCut        ... 1.0000e-14
Angular grids for H and He will be reduced by one unit
Partially contracted basis set               ... off
Rotationally invariant grid construction     ... off

Total number of grid points                  ...    98163
Total number of batches                      ...     1542
Average number of points per batch           ...       63
Average number of grid points per atom       ...     5454
Time for grid setup =    0.868 sec

--------------------
COSX GRID GENERATION
--------------------

GRIDX 1
-------
General Integration Accuracy     IntAcc      ... 3.816
Radial Grid Type                 RadialGrid  ... OptM3 with GC (2021)
Angular Grid (max. ang.)         AngularGrid ... 1 (Lebedev-50)
Angular grid pruning method      GridPruning ... 4 (adaptive)
Weight generation scheme         WeightScheme... Becke
Basis function cutoff            BFCut       ... 1.0000e-11
Integration weight cutoff        WCut        ... 1.0000e-14
Angular grids for H and He will be reduced by one unit
Partially contracted basis set               ... on
Rotationally invariant grid construction     ... off

Total number of grid points                  ...    12261
Total number of batches                      ...      203
Average number of points per batch           ...       60
Average number of grid points per atom       ...      681
UseSFitting                                  ... on

GRIDX 2
-------
General Integration Accuracy     IntAcc      ... 4.020
Radial Grid Type                 RadialGrid  ... OptM3 with GC (2021)
Angular Grid (max. ang.)         AngularGrid ... 2 (Lebedev-110)
Angular grid pruning method      GridPruning ... 4 (adaptive)
Weight generation scheme         WeightScheme... Becke
Basis function cutoff            BFCut       ... 1.0000e-11
Integration weight cutoff        WCut        ... 1.0000e-14
Angular grids for H and He will be reduced by one unit
Partially contracted basis set               ... on
Rotationally invariant grid construction     ... off

Total number of grid points                  ...    31184
Total number of batches                      ...      495
Average number of points per batch           ...       62
Average number of grid points per atom       ...     1732
UseSFitting                                  ... on

GRIDX 3
-------
General Integration Accuracy     IntAcc      ... 4.338
Radial Grid Type                 RadialGrid  ... OptM3 with GC (2021)
Angular Grid (max. ang.)         AngularGrid ... 3 (Lebedev-194)
Angular grid pruning method      GridPruning ... 4 (adaptive)
Weight generation scheme         WeightScheme... Becke
Basis function cutoff            BFCut       ... 1.0000e-11
Integration weight cutoff        WCut        ... 1.0000e-14
Angular grids for H and He will be reduced by one unit
Partially contracted basis set               ... on
Rotationally invariant grid construction     ... off

Total number of grid points                  ...    69429
Total number of batches                      ...     1093
Average number of points per batch           ...       63
Average number of grid points per atom       ...     3857
UseSFitting                                  ... on

Time for X-Grid setup             =    1.298 sec


--------------------
CPCM SOLVATION MODEL
--------------------
CPCM parameters:
  Epsilon                                         ...      78.3550
  Refrac                                          ...       1.3328
  Rsolv                                           ...       1.3000
  Surface type                                    ... GAUSSIAN VDW
  Epsilon function type                           ...         CPCM
Solvent:                                     ... WATER
SMD-CDS solvent descriptors:
  Soln                                       ...    1.3328
  Soln25                                     ...    1.3323
  Sola                                       ...    0.0000
  Solb                                       ...    0.0000
  Solg                                       ...    0.0000
  Solc                                       ...    0.0000
  Solh                                       ...    0.0000
Radii:
 Radius for C  used is    3.4960 Bohr (=   1.8500 Ang.)
 Radius for N  used is    3.5716 Bohr (=   1.8900 Ang.)
 Radius for O  used is    2.8724 Bohr (=   1.5200 Ang.)
 Radius for F  used is    3.2692 Bohr (=   1.7300 Ang.)
 Radius for H  used is    2.2677 Bohr (=   1.2000 Ang.)
 Radius for S  used is    4.7054 Bohr (=   2.4900 Ang.)
Calculating surface                               ...        done! (  0.0s)
GEPOL surface points                              ...         1155
GEPOL Volume                                      ...    1374.9242
GEPOL Surface-area                                ...     850.8297
Calculating surface distance matrix               ...        done! (  0.0s)
Performing Cholesky decomposition & store         ...        done! (  0.1s)
Overall time for CPCM initialization              ...                 0.1s
--------------
SCF ITERATIONS
--------------
ITER       Energy         Delta-E        Max-DP      RMS-DP      [F,P]     Damp
               ***  Starting incremental Fock matrix formation  ***
  0   -989.8659532437   0.000000000000 0.33536469  0.00322254  0.2373489 0.7000
  1   -990.0281512470  -0.162198003265 0.25942850  0.00248685  0.1165595 0.7000
                               ***Turning on DIIS***
  2   -990.1005823506  -0.072431103616 1.64432990  0.00936900  0.0610666 0.0000
  3   -990.2246221710  -0.124039820428 0.78579710  0.00408934  0.0550204 0.0000
  4   -990.2437619308  -0.019139759768 0.27768402  0.00145580  0.0124281 0.0000
  5   -990.2449369476  -0.001175016811 0.14066440  0.00075412  0.0061334 0.0000
                      *** Initiating the SOSCF procedure ***
                           *** Shutting down DIIS ***
                      *** Re-Reading the Fockian *** 
                      *** Removing any level shift *** 
ITER      Energy       Delta-E        Grad      Rot      Max-DP    RMS-DP
  6   -990.24516812  -0.0002311738  0.001494  0.001494  0.042756  0.000249
               *** Restarting incremental Fock matrix formation ***
  7   -990.24525924  -0.0000911181  0.000979  0.002402  0.014272  0.000225
  8   -990.24530018  -0.0000409436  0.000374  0.002776  0.011231  0.000185
  9   -990.24530621  -0.0000060235  0.000701  0.000741  0.007146  0.000111
 10   -990.24531340  -0.0000071956  0.000115  0.000210  0.003348  0.000028
 11   -990.24531348  -0.0000000778  0.000093  0.000126  0.005239  0.000028
 12   -990.24531385  -0.0000003653  0.000014  0.000040  0.007349  0.000039
 13   -990.24531385  -0.0000000031  0.000007  0.000031  0.004438  0.000033
 14   -990.24531385  -0.0000000057  0.000005  0.000013  0.003241  0.000022
                  ***Gradient check signals convergence***
              ***Rediagonalizing the Fockian in SOSCF/NRSCF***

               *****************************************************
               *                     SUCCESS                       *
               *           SCF CONVERGED AFTER  15 CYCLES          *
               *****************************************************

Old exchange energy                            =    -28.432707306 Eh
New exchange energy                            =    -28.432698979 Eh
Exchange energy change after final integration =      0.000008326 Eh
Total energy after final integration           =   -990.245305531 Eh
Final COS-X integration done in                =     3.251 sec

SMD CDS free energy correction energy :                 5.87294     Kcal/mol
Total Energy after SMD CDS correction =              -990.235946413 Eh

----------------
TOTAL SCF ENERGY
----------------

Total Energy       :         -990.23594641 Eh          -26945.68999 eV

Components:
Nuclear Repulsion  :          655.74497432 Eh           17843.72791 eV
Electronic Energy  :        -1645.98092073 Eh          -44789.41790 eV
One Electron Energy:        -2670.04720251 Eh          -72655.67812 eV
Two Electron Energy:         1024.06628178 Eh           27866.26022 eV
Max COSX asymmetry :            0.00000226 Eh               0.00006 eV
CPCM Dielectric    :           -0.13812663 Eh              -3.75862 eV
SMD CDS (Gcds)     :            0.00935912 Eh               0.25467 eV

Virial components:
Potential Energy   :        -1977.46854606 Eh          -53809.65477 eV
Kinetic Energy     :          987.23259965 Eh           26863.96477 eV
Virial Ratio       :            2.00304219


DFT components:
N(Alpha)           :       48.999679143888 electrons
N(Beta)            :       48.999679143888 electrons
N(Total)           :       97.999358287776 electrons
E(XC)              :      -73.338097673252 Eh       
DFET-embed. en.    :        0.000000000000 Eh       
CPCM Solvation Model Properties:
Surface-charge          :            0.94376208
Charge-correction       :           -0.00533113 Eh              -0.14507 eV
Free-energy (cav+disp)  :            0.00935912 Eh               0.25467 eV

---------------
SCF CONVERGENCE
---------------

  Last Energy change         ...   -2.8056e-09  Tolerance :   1.0000e-08
  Last MAX-Density change    ...    7.9936e-15  Tolerance :   1.0000e-07
  Last RMS-Density change    ...    4.6768e-17  Tolerance :   5.0000e-09
  Last Orbital Gradient      ...    1.9482e-06  Tolerance :   1.0000e-05
  Last Orbital Rotation      ...    1.8398e-06  Tolerance :   1.0000e-05

             **** THE GBW FILE WAS UPDATED (structure_opt.gbw) ****
             **** DENSITY structure_opt.scfp WAS UPDATED ****
             **** ENERGY FILE WAS UPDATED (structure_opt.en.tmp) ****
             **** THE GBW FILE WAS UPDATED (structure_opt.gbw) ****
             **** DENSITY structure_opt.scfp WAS UPDATED ****
----------------
ORBITAL ENERGIES
----------------

  NO   OCC          E(Eh)            E(eV) 
   0   2.0000     -88.720134     -2414.1976 
   1   2.0000     -24.793456      -674.6642 
   2   2.0000     -19.275734      -524.5194 
   3   2.0000     -19.244036      -523.6569 
   4   2.0000     -14.669949      -399.1896 
   5   2.0000     -14.435763      -392.8171 
   6   2.0000     -10.437881      -284.0292 
   7   2.0000     -10.364347      -282.0282 
   8   2.0000     -10.338427      -281.3229 
   9   2.0000     -10.321399      -280.8595 
  10   2.0000     -10.290730      -280.0250 
  11   2.0000     -10.236046      -278.5370 
  12   2.0000      -7.916025      -215.4060 
  13   2.0000      -5.879173      -159.9804 
  14   2.0000      -5.871776      -159.7792 
  15   2.0000      -5.871772      -159.7791 
  16   2.0000      -1.396490       -38.0004 
  17   2.0000      -1.348347       -36.6904 
  18   2.0000      -1.151612       -31.3369 
  19   2.0000      -1.109483       -30.1906 
  20   2.0000      -1.008595       -27.4453 
  21   2.0000      -0.943624       -25.6773 
  22   2.0000      -0.874187       -23.7879 
  23   2.0000      -0.836234       -22.7551 
  24   2.0000      -0.796859       -21.6836 
  25   2.0000      -0.769369       -20.9356 
  26   2.0000      -0.706152       -19.2154 
  27   2.0000      -0.686707       -18.6862 
  28   2.0000      -0.669566       -18.2198 
  29   2.0000      -0.665158       -18.0999 
  30   2.0000      -0.661865       -18.0103 
  31   2.0000      -0.633412       -17.2360 
  32   2.0000      -0.620496       -16.8846 
  33   2.0000      -0.615460       -16.7475 
  34   2.0000      -0.563978       -15.3466 
  35   2.0000      -0.537326       -14.6214 
  36   2.0000      -0.528149       -14.3717 
  37   2.0000      -0.528130       -14.3711 
  38   2.0000      -0.494440       -13.4544 
  39   2.0000      -0.494224       -13.4485 
  40   2.0000      -0.456212       -12.4142 
  41   2.0000      -0.432606       -11.7718 
  42   2.0000      -0.421780       -11.4772 
  43   2.0000      -0.416653       -11.3377 
  44   2.0000      -0.408243       -11.1089 
  45   2.0000      -0.390796       -10.6341 
  46   2.0000      -0.385141       -10.4802 
  47   2.0000      -0.258963        -7.0467 
  48   2.0000      -0.258931        -7.0459 
  49   0.0000      -0.064913        -1.7664 
  50   0.0000       0.022473         0.6115 
  51   0.0000       0.054704         1.4886 
  52   0.0000       0.055416         1.5079 
  53   0.0000       0.057109         1.5540 
  54   0.0000       0.067910         1.8479 
  55   0.0000       0.073220         1.9924 
  56   0.0000       0.086245         2.3468 
  57   0.0000       0.090449         2.4612 
  58   0.0000       0.090574         2.4646 
  59   0.0000       0.100236         2.7276 
  60   0.0000       0.113370         3.0850 
  61   0.0000       0.115028         3.1301 
  62   0.0000       0.125839         3.4242 
  63   0.0000       0.128900         3.5076 
  64   0.0000       0.129838         3.5331 
  65   0.0000       0.142045         3.8652 
  66   0.0000       0.143075         3.8933 
  67   0.0000       0.153066         4.1651 
  68   0.0000       0.160290         4.3617 
  69   0.0000       0.163848         4.4585 
  70   0.0000       0.169046         4.6000 
  71   0.0000       0.170514         4.6399 
  72   0.0000       0.173495         4.7210 
  73   0.0000       0.178099         4.8463 
  74   0.0000       0.180789         4.9195 
  75   0.0000       0.181456         4.9377 
  76   0.0000       0.191072         5.1993 
  77   0.0000       0.192860         5.2480 
  78   0.0000       0.197137         5.3644 
  79   0.0000       0.201230         5.4757 
  80   0.0000       0.203643         5.5414 
  81   0.0000       0.210982         5.7411 
  82   0.0000       0.220206         5.9921 
  83   0.0000       0.222028         6.0417 
  84   0.0000       0.233399         6.3511 
  85   0.0000       0.236611         6.4385 
  86   0.0000       0.248817         6.7707 
  87   0.0000       0.253298         6.8926 
  88   0.0000       0.259697         7.0667 
  89   0.0000       0.267207         7.2711 
  90   0.0000       0.271093         7.3768 
  91   0.0000       0.274333         7.4650 
  92   0.0000       0.278042         7.5659 
  93   0.0000       0.278259         7.5718 
  94   0.0000       0.283356         7.7105 
  95   0.0000       0.295818         8.0496 
  96   0.0000       0.305574         8.3151 
  97   0.0000       0.310163         8.4400 
  98   0.0000       0.312599         8.5062 
  99   0.0000       0.322388         8.7726 
 100   0.0000       0.328258         8.9323 
 101   0.0000       0.336770         9.1640 
 102   0.0000       0.348832         9.4922 
 103   0.0000       0.349711         9.5161 
 104   0.0000       0.360744         9.8164 
 105   0.0000       0.365140         9.9360 
 106   0.0000       0.370496        10.0817 
 107   0.0000       0.372387        10.1332 
 108   0.0000       0.396552        10.7907 
 109   0.0000       0.403984        10.9930 
 110   0.0000       0.408242        11.1088 
 111   0.0000       0.411165        11.1884 
 112   0.0000       0.420862        11.4522 
 113   0.0000       0.427209        11.6250 
 114   0.0000       0.438898        11.9430 
 115   0.0000       0.450033        12.2460 
 116   0.0000       0.453057        12.3283 
 117   0.0000       0.456995        12.4355 
 118   0.0000       0.466826        12.7030 
 119   0.0000       0.478419        13.0184 
 120   0.0000       0.491243        13.3674 
 121   0.0000       0.504530        13.7290 
 122   0.0000       0.518644        14.1130 
 123   0.0000       0.527264        14.3476 
 124   0.0000       0.527729        14.3602 
 125   0.0000       0.549149        14.9431 
 126   0.0000       0.583000        15.8642 
 127   0.0000       0.609880        16.5957 
 128   0.0000       0.612417        16.6647 
 129   0.0000       0.618634        16.8339 
 130   0.0000       0.625399        17.0180 
 131   0.0000       0.638366        17.3708 
 132   0.0000       0.649926        17.6854 
 133   0.0000       0.657774        17.8989 
 134   0.0000       0.668005        18.1773 
 135   0.0000       0.700675        19.0663 
 136   0.0000       0.701381        19.0855 
 137   0.0000       0.726515        19.7695 
 138   0.0000       0.743756        20.2386 
 139   0.0000       0.770476        20.9657 
 140   0.0000       0.770660        20.9707 
 141   0.0000       0.778990        21.1974 
 142   0.0000       0.811345        22.0778 
 143   0.0000       0.826082        22.4788 
 144   0.0000       0.835583        22.7374 
 145   0.0000       0.848266        23.0825 
 146   0.0000       0.850595        23.1459 
 147   0.0000       0.870412        23.6851 
 148   0.0000       0.897905        24.4332 
 149   0.0000       0.909314        24.7437 
 150   0.0000       0.919038        25.0083 
 151   0.0000       0.933282        25.3959 
 152   0.0000       0.953466        25.9451 
 153   0.0000       0.953905        25.9571 
 154   0.0000       0.960110        26.1259 
 155   0.0000       0.972088        26.4519 
 156   0.0000       0.975486        26.5443 
 157   0.0000       0.983573        26.7644 
 158   0.0000       1.002354        27.2754 
 159   0.0000       1.004242        27.3268 
 160   0.0000       1.004252        27.3271 
 161   0.0000       1.034302        28.1448 
 162   0.0000       1.043120        28.3847 
 163   0.0000       1.061634        28.8885 
 164   0.0000       1.073906        29.2225 
 165   0.0000       1.079947        29.3869 
 166   0.0000       1.083904        29.4945 
 167   0.0000       1.141273        31.0556 
 168   0.0000       1.146915        31.2091 
 169   0.0000       1.151746        31.3406 
 170   0.0000       1.172373        31.9019 
 171   0.0000       1.186283        32.2804 
 172   0.0000       1.198432        32.6110 
 173   0.0000       1.210024        32.9264 
 174   0.0000       1.250153        34.0184 
 175   0.0000       1.261358        34.3233 
 176   0.0000       1.276941        34.7473 
 177   0.0000       1.278694        34.7950 
 178   0.0000       1.279058        34.8049 
 179   0.0000       1.292550        35.1721 
 180   0.0000       1.298165        35.3249 
 181   0.0000       1.356690        36.9174 
 182   0.0000       1.394213        37.9385 
 183   0.0000       1.405199        38.2374 
 184   0.0000       1.470773        40.0218 
 185   0.0000       1.506335        40.9895 
 186   0.0000       1.550025        42.1783 
 187   0.0000       1.586549        43.1722 
 188   0.0000       1.589364        43.2488 
 189   0.0000       1.589475        43.2518 
 190   0.0000       1.617216        44.0067 
 191   0.0000       1.631482        44.3949 
 192   0.0000       1.655031        45.0357 
 193   0.0000       1.656915        45.0870 
 194   0.0000       1.692188        46.0468 
 195   0.0000       1.692725        46.0614 
 196   0.0000       1.703586        46.3569 
 197   0.0000       1.715262        46.6747 
 198   0.0000       1.748644        47.5830 
 199   0.0000       1.762322        47.9552 
 200   0.0000       1.786995        48.6266 
 201   0.0000       1.808896        49.2226 
 202   0.0000       1.809411        49.2366 
 203   0.0000       1.812325        49.3159 
 204   0.0000       1.841898        50.1206 
 205   0.0000       1.843283        50.1583 
 206   0.0000       1.868912        50.8557 
 207   0.0000       1.910274        51.9812 
 208   0.0000       1.933745        52.6199 
 209   0.0000       1.946785        52.9747 
 210   0.0000       1.969116        53.5824 
 211   0.0000       1.970153        53.6106 
 212   0.0000       1.990579        54.1664 
 213   0.0000       2.011076        54.7242 
 214   0.0000       2.031803        55.2882 
 215   0.0000       2.045021        55.6479 
 216   0.0000       2.049697        55.7751 
 217   0.0000       2.110006        57.4162 
 218   0.0000       2.140426        58.2439 
 219   0.0000       2.147370        58.4329 
 220   0.0000       2.168026        58.9950 
 221   0.0000       2.172193        59.1084 
 222   0.0000       2.176117        59.2152 
 223   0.0000       2.205710        60.0204 
 224   0.0000       2.292509        62.3823 
 225   0.0000       2.323792        63.2336 
 226   0.0000       2.331831        63.4523 
 227   0.0000       2.332097        63.4596 
 228   0.0000       2.398975        65.2794 
 229   0.0000       2.429145        66.1004 
 230   0.0000       2.493529        67.8524 
 231   0.0000       2.563323        69.7516 
 232   0.0000       2.587604        70.4123 
 233   0.0000       2.595460        70.6260 
 234   0.0000       2.604207        70.8641 
 235   0.0000       2.627008        71.4845 
 236   0.0000       2.658721        72.3475 
 237   0.0000       2.659007        72.3553 
 238   0.0000       2.673198        72.7414 
 239   0.0000       2.673432        72.7478 
 240   0.0000       2.692008        73.2533 
 241   0.0000       2.766341        75.2760 
 242   0.0000       2.784780        75.7777 
 243   0.0000       2.828645        76.9713 
 244   0.0000       2.839696        77.2721 
 245   0.0000       2.858226        77.7763 
 246   0.0000       2.867314        78.0236 
 247   0.0000       2.882844        78.4462 
 248   0.0000       2.893738        78.7426 
 249   0.0000       2.901566        78.9556 
 250   0.0000       2.930948        79.7551 
 251   0.0000       2.937153        79.9240 
 252   0.0000       2.959978        80.5451 
 253   0.0000       2.976223        80.9871 
 254   0.0000       2.986470        81.2660 
 255   0.0000       3.001373        81.6715 
 256   0.0000       3.007303        81.8329 
 257   0.0000       3.097462        84.2862 
 258   0.0000       3.152738        85.7904 
 259   0.0000       3.188561        86.7652 
 260   0.0000       3.268458        88.9393 
 261   0.0000       3.307256        89.9950 
 262   0.0000       3.307831        90.0107 
 263   0.0000       3.337282        90.8121 
 264   0.0000       3.368082        91.6502 
 265   0.0000       3.454173        93.9928 
 266   0.0000       3.496696        95.1499 
 267   0.0000       3.558334        96.8272 
 268   0.0000       3.592998        97.7704 
 269   0.0000       3.680734       100.1579 
 270   0.0000       3.703581       100.7796 
 271   0.0000       3.753102       102.1271 
 272   0.0000       3.853289       104.8533 
 273   0.0000       3.883482       105.6749 
 274   0.0000       3.888689       105.8166 
 275   0.0000       3.890314       105.8608 
 276   0.0000       3.902838       106.2016 
 277   0.0000       3.924271       106.7848 
 278   0.0000       4.011874       109.1686 
 279   0.0000       4.059333       110.4601 
 280   0.0000       4.119792       112.1052 
 281   0.0000       4.143529       112.7512 
 282   0.0000       4.168964       113.4433 
 283   0.0000       4.405310       119.8746 
 284   0.0000       4.477562       121.8407 
 285   0.0000       4.503736       122.5529 
 286   0.0000       4.760696       129.5451 
 287   0.0000       4.943177       134.5107 
 288   0.0000       5.074490       138.0839 
 289   0.0000       5.101976       138.8318 
 290   0.0000       5.191834       141.2770 
 291   0.0000       5.219431       142.0279 
 292   0.0000       5.314459       144.6138 
 293   0.0000       5.698495       155.0639 
 294   0.0000       6.129986       166.8054 
 295   0.0000       6.407578       174.3590 
 296   0.0000       6.538750       177.9284 
 297   0.0000       6.843585       186.2234 
 298   0.0000       7.976530       217.0524 
 299   0.0000      17.544766       477.4174 
 300   0.0000      17.545573       477.4393 
 301   0.0000      17.631621       479.7808 
 302   0.0000      23.648766       643.5156 
 303   0.0000      23.890130       650.0835 
 304   0.0000      23.983908       652.6353 
 305   0.0000      24.029007       653.8625 
 306   0.0000      24.070874       655.0018 
 307   0.0000      24.181008       657.9987 
 308   0.0000      35.374995       962.6025 
 309   0.0000      35.656792       970.2706 
 310   0.0000      49.899342      1357.8301 
 311   0.0000      49.963591      1359.5784 
 312   0.0000      66.792529      1817.5171 
 313   0.0000     188.965387      5142.0096 

--------------------
FRAGMENT INFORMATION
--------------------
Fragment  1:    0   1   2   3   4   5 
Fragment  2:    6   7   8   9  10  11  12 
Fragment  3:   13  14  15  16 
Fragment  4:   17 


                    ********************************
                    * MULLIKEN POPULATION ANALYSIS *
                    ********************************

-------------------------
MULLIKEN FRAGMENT CHARGES
-------------------------
 Fragment   0 :  -0.447335
 Fragment   1 :   0.447280
 Fragment   2 :  -0.029029
 Fragment   3 :  -0.970916
Sum of fragment charges:   -1.0000000

---------------------------------
MULLIKEN FRAGMENT OVERLAP CHARGES
---------------------------------
                  0          1          2          3    
      0      20.676980   0.629462  -0.000025  -0.000082
      1       0.629462  34.968121   0.000014   0.000167
      2      -0.000025   0.000014  11.655692  -0.693110
      3      -0.000082   0.000167  -0.693110  17.317429

-----------------------
MULLIKEN ATOMIC CHARGES
-----------------------
   0 C :   -0.020139
   1 N :   -0.205413
   2 C :   -0.291182
   3 C :   -0.268995
   4 C :    0.447463
   5 C :   -0.109069
   6 N :   -0.060783
   7 O :   -0.055658
   8 O :   -0.237768
   9 F :   -0.102433
  10 H :    0.296576
  11 H :    0.280869
  12 H :    0.326476
  13 C :   -0.409363
  14 H :    0.126662
  15 H :    0.126985
  16 H :    0.126687
  17 S :   -0.970916
Sum of atomic charges:   -1.0000000

--------------------------------
MULLIKEN REDUCED ORBITAL CHARGES
--------------------------------
  0 C s       :     3.261213  s :     3.261213
      pz      :     0.681838  p :     2.598461
      px      :     0.975199
      py      :     0.941425
      dz2     :     0.052755  d :     0.160465
      dxz     :     0.048847
      dyz     :     0.028448
      dx2y2   :     0.013770
      dxy     :     0.016644
  1 N s       :     3.625984  s :     3.625984
      pz      :     1.142854  p :     3.548902
      px      :     1.241551
      py      :     1.164498
      dz2     :     0.008167  d :     0.030527
      dxz     :     0.007239
      dyz     :     0.004758
      dx2y2   :     0.005505
      dxy     :     0.004859
  2 C s       :     3.373008  s :     3.373008
      pz      :     0.812496  p :     2.834025
      px      :     1.167435
      py      :     0.854094
      dz2     :     0.023580  d :     0.084148
      dxz     :     0.032197
      dyz     :     0.014802
      dx2y2   :     0.007221
      dxy     :     0.006349
  3 C s       :     3.218692  s :     3.218692
      pz      :     1.159336  p :     2.997142
      px      :     0.870666
      py      :     0.967141
      dz2     :     0.015295  d :     0.053162
      dxz     :     0.017413
      dyz     :     0.005092
      dx2y2   :     0.008213
      dxy     :     0.007149
  4 C s       :     2.496896  s :     2.496896
      pz      :     0.905444  p :     2.998548
      px      :     1.246531
      py      :     0.846573
      dz2     :     0.016546  d :     0.057093
      dxz     :     0.015857
      dyz     :     0.010570
      dx2y2   :     0.007215
      dxy     :     0.006905
  5 C s       :     3.308648  s :     3.308648
      pz      :     1.118712  p :     2.727276
      px      :     0.485218
      py      :     1.123347
      dz2     :     0.013629  d :     0.073144
      dxz     :     0.029767
      dyz     :     0.010340
      dx2y2   :     0.011219
      dxy     :     0.008189
  6 N s       :     3.586049  s :     3.586049
      pz      :     1.052470  p :     3.365740
      px      :     1.211392
      py      :     1.101878
      dz2     :     0.027718  d :     0.108994
      dxz     :     0.039367
      dyz     :     0.023076
      dx2y2   :     0.008550
      dxy     :     0.010283
  7 O s       :     3.782081  s :     3.782081
      pz      :     1.026744  p :     4.254874
      px      :     1.828241
      py      :     1.399889
      dz2     :     0.009711  d :     0.018702
      dxz     :     0.003514
      dyz     :     0.005309
      dx2y2   :     0.000102
      dxy     :     0.000067
  8 O s       :     3.824309  s :     3.824309
      pz      :     1.624565  p :     4.401344
      px      :     1.218299
      py      :     1.558480
      dz2     :     0.001058  d :     0.012115
      dxz     :     0.004900
      dyz     :     0.000879
      dx2y2   :     0.003118
      dxy     :     0.002159
  9 F s       :     3.918392  s :     3.918392
      pz      :     1.388811  p :     5.178708
      px      :     1.915789
      py      :     1.874108
      dz2     :     0.003097  d :     0.005333
      dxz     :     0.000998
      dyz     :     0.001202
      dx2y2   :     0.000027
      dxy     :     0.000009
 10 H s       :     0.679524  s :     0.679524
      pz      :     0.005481  p :     0.023900
      px      :     0.014121
      py      :     0.004298
 11 H s       :     0.694169  s :     0.694169
      pz      :     0.016373  p :     0.024962
      px      :     0.003655
      py      :     0.004935
 12 H s       :     0.648004  s :     0.648004
      pz      :     0.007741  p :     0.025520
      px      :     0.013378
      py      :     0.004401
 13 C s       :     3.268821  s :     3.268821
      pz      :     1.028195  p :     3.087935
      px      :     1.054825
      py      :     1.004916
      dz2     :     0.007007  d :     0.052607
      dxz     :     0.013373
      dyz     :     0.012458
      dx2y2   :     0.015140
      dxy     :     0.004629
 14 H s       :     0.850610  s :     0.850610
      pz      :     0.005839  p :     0.022729
      px      :     0.012097
      py      :     0.004793
 15 H s       :     0.850277  s :     0.850277
      pz      :     0.009794  p :     0.022737
      px      :     0.008230
      py      :     0.004714
 16 H s       :     0.850608  s :     0.850608
      pz      :     0.006987  p :     0.022705
      px      :     0.004672
      py      :     0.011045
 17 S s       :     6.023008  s :     6.023008
      pz      :     3.624906  p :    10.916468
      px      :     3.928936
      py      :     3.362626
      dz2     :     0.002938  d :     0.031441
      dxz     :     0.003057
      dyz     :     0.014314
      dx2y2   :     0.006574
      dxy     :     0.004557


                     *******************************
                     * LOEWDIN POPULATION ANALYSIS *
                     *******************************

------------------------
LOEWDIN FRAGMENT CHARGES
------------------------
 Fragment   0 :   0.057565
 Fragment   1 :  -0.057569
 Fragment   2 :  -0.355599
 Fragment   3 :  -0.644397

----------------------------
LOEWDIN FRAGMENT BOND ORDERS
----------------------------
                  0          1          2          3    
      0      56.961299   6.778774   0.000007   0.000043
      1       6.778774  43.787764   0.000007   0.000044
      2       0.000007   0.000007  15.419604   1.742851
      3       0.000043   0.000044   1.742851  16.644397

----------------------
LOEWDIN ATOMIC CHARGES
----------------------
   0 C :    0.111524
   1 N :   -0.111838
   2 C :    0.077328
   3 C :   -0.033837
   4 C :    0.078067
   5 C :   -0.063678
   6 N :    0.241424
   7 O :   -0.153725
   8 O :   -0.338956
   9 F :   -0.078062
  10 H :    0.087022
  11 H :    0.084551
  12 H :    0.100177
  13 C :   -0.359070
  14 H :    0.001093
  15 H :    0.001178
  16 H :    0.001200
  17 S :   -0.644397

-------------------------------
LOEWDIN REDUCED ORBITAL CHARGES
-------------------------------
  0 C s       :     2.743698  s :     2.743698
      pz      :     0.849377  p :     2.815652
      px      :     1.080463
      py      :     0.885811
      dz2     :     0.112513  d :     0.329126
      dxz     :     0.100724
      dyz     :     0.050395
      dx2y2   :     0.033875
      dxy     :     0.031619
  1 N s       :     3.151622  s :     3.151622
      pz      :     1.301212  p :     3.903377
      px      :     1.416889
      py      :     1.185277
      dz2     :     0.017389  d :     0.056839
      dxz     :     0.015718
      dyz     :     0.007790
      dx2y2   :     0.009544
      dxy     :     0.006397
  2 C s       :     2.786884  s :     2.786884
      pz      :     1.032887  p :     2.953944
      px      :     1.096533
      py      :     0.824524
      dz2     :     0.060302  d :     0.181845
      dxz     :     0.069057
      dyz     :     0.027982
      dx2y2   :     0.014014
      dxy     :     0.010489
  3 C s       :     2.781245  s :     2.781245
      pz      :     1.081333  p :     3.128233
      px      :     1.092135
      py      :     0.954765
      dz2     :     0.034119  d :     0.124360
      dxz     :     0.045069
      dyz     :     0.008010
      dx2y2   :     0.022212
      dxy     :     0.014949
  4 C s       :     2.779234  s :     2.779234
      pz      :     1.065828  p :     3.014404
      px      :     1.108249
      py      :     0.840327
      dz2     :     0.040904  d :     0.128295
      dxz     :     0.039166
      dyz     :     0.021252
      dx2y2   :     0.015051
      dxy     :     0.011923
  5 C s       :     2.757955  s :     2.757955
      pz      :     1.088453  p :     3.125399
      px      :     0.957278
      py      :     1.079669
      dz2     :     0.039911  d :     0.180324
      dxz     :     0.071775
      dyz     :     0.019833
      dx2y2   :     0.031418
      dxy     :     0.017387
  6 N s       :     3.052037  s :     3.052037
      pz      :     1.205989  p :     3.500176
      px      :     1.215029
      py      :     1.079158
      dz2     :     0.060434  d :     0.206362
      dxz     :     0.076201
      dyz     :     0.035694
      dx2y2   :     0.017514
      dxy     :     0.016519
  7 O s       :     3.581229  s :     3.581229
      pz      :     1.283660  p :     4.540177
      px      :     1.838800
      py      :     1.417717
      dz2     :     0.020439  d :     0.032318
      dxz     :     0.005158
      dyz     :     0.006531
      dx2y2   :     0.000119
      dxy     :     0.000071
  8 O s       :     3.667383  s :     3.667383
      pz      :     1.709904  p :     4.651091
      px      :     1.369846
      py      :     1.571340
      dz2     :     0.001545  d :     0.020482
      dxz     :     0.009263
      dyz     :     0.001173
      dx2y2   :     0.005712
      dxy     :     0.002790
  9 F s       :     3.714994  s :     3.714994
      pz      :     1.535121  p :     5.355697
      px      :     1.934341
      py      :     1.886235
      dz2     :     0.004767  d :     0.007371
      dxz     :     0.001184
      dyz     :     0.001375
      dx2y2   :     0.000037
      dxy     :     0.000009
 10 H s       :     0.842578  s :     0.842578
      pz      :     0.016676  p :     0.070400
      px      :     0.042296
      py      :     0.011428
 11 H s       :     0.842998  s :     0.842998
      pz      :     0.047834  p :     0.072450
      px      :     0.011210
      py      :     0.013407
 12 H s       :     0.826594  s :     0.826594
      pz      :     0.023098  p :     0.073229
      px      :     0.038714
      py      :     0.011417
 13 C s       :     2.858376  s :     2.858376
      pz      :     1.131869  p :     3.393786
      px      :     1.120578
      py      :     1.141340
      dz2     :     0.013483  d :     0.106907
      dxz     :     0.026535
      dyz     :     0.027036
      dx2y2   :     0.030805
      dxy     :     0.009049
 14 H s       :     0.927135  s :     0.927135
      pz      :     0.018174  p :     0.071773
      px      :     0.038991
      py      :     0.014608
 15 H s       :     0.927032  s :     0.927032
      pz      :     0.031809  p :     0.071790
      px      :     0.025471
      py      :     0.014510
 16 H s       :     0.927107  s :     0.927107
      pz      :     0.021481  p :     0.071692
      px      :     0.013592
      py      :     0.036620
 17 S s       :     5.613993  s :     5.613993
      pz      :     3.654250  p :    10.993254
      px      :     3.885543
      py      :     3.453461
      dz2     :     0.003282  d :     0.037149
      dxz     :     0.003558
      dyz     :     0.017225
      dx2y2   :     0.007779
      dxy     :     0.005306


                      *****************************
                      * MAYER POPULATION ANALYSIS *
                      *****************************

  NA   - Mulliken gross atomic population
  ZA   - Total nuclear charge
  QA   - Mulliken gross atomic charge
  VA   - Mayer's total valence
  BVA  - Mayer's bonded valence
  FA   - Mayer's free valence

  ATOM       NA         ZA         QA         VA         BVA        FA
  0 C      6.0201     6.0000    -0.0201     4.3445     4.3445    -0.0000
  1 N      7.2054     7.0000    -0.2054     2.7037     2.7037    -0.0000
  2 C      6.2912     6.0000    -0.2912     3.9822     3.9822    -0.0000
  3 C      6.2690     6.0000    -0.2690     4.3623     4.3623    -0.0000
  4 C      5.5525     6.0000     0.4475     4.1308     4.1308    -0.0000
  5 C      6.1091     6.0000    -0.1091     3.3830     3.3830    -0.0000
  6 N      7.0608     7.0000    -0.0608     3.9000     3.9000    -0.0000
  7 O      8.0557     8.0000    -0.0557     2.1994     2.1994    -0.0000
  8 O      8.2378     8.0000    -0.2378     1.9955     1.9955    -0.0000
  9 F      9.1024     9.0000    -0.1024     0.9618     0.9618    -0.0000
 10 H      0.7034     1.0000     0.2966     0.8708     0.8708     0.0000
 11 H      0.7191     1.0000     0.2809     0.9041     0.9041     0.0000
 12 H      0.6735     1.0000     0.3265     0.8332     0.8332     0.0000
 13 C      6.4094     6.0000    -0.4094     3.5647     3.5647     0.0000
 14 H      0.8733     1.0000     0.1267     0.9426     0.9426    -0.0000
 15 H      0.8730     1.0000     0.1270     0.9425     0.9425     0.0000
 16 H      0.8733     1.0000     0.1267     0.9424     0.9424     0.0000
 17 S     16.9709    16.0000    -0.9709     0.5897     0.5897    -0.0000

  Mayer bond orders larger than 0.100000
B(  0-C ,  1-N ) :   1.3004 B(  0-C ,  2-C ) :   0.1948 B(  0-C ,  3-C ) :   0.1529 
B(  0-C ,  4-C ) :   0.3107 B(  0-C ,  5-C ) :   1.2051 B(  0-C ,  6-N ) :  -0.1890 
B(  0-C ,  9-F ) :   1.3882 B(  1-N ,  2-C ) :   1.1808 B(  1-N ,  5-C ) :   0.1761 
B(  2-C ,  3-C ) :   1.5935 B(  2-C , 10-H ) :   0.8819 B(  3-C ,  4-C ) :   1.4816 
B(  3-C ,  8-O ) :   0.1339 B(  3-C , 11-H ) :   0.8430 B(  4-C ,  5-C ) :   1.5765 
[...]
 289   0.0000       5.124865       139.4547 
 290   0.0000       5.207258       141.6967 
 291   0.0000       5.281393       143.7140 
 292   0.0000       5.370251       146.1320 
 293   0.0000       5.848861       159.1556 
 294   0.0000       6.340063       172.5219 
 295   0.0000       6.416169       174.5928 
 296   0.0000       6.549522       178.2216 
 297   0.0000       6.864803       186.8008 
 298   0.0000       7.976567       217.0534 
 299   0.0000      17.544784       477.4178 
 300   0.0000      17.545593       477.4399 
 301   0.0000      17.631668       479.7821 
 302   0.0000      23.700532       644.9243 
 303   0.0000      23.954063       651.8232 
 304   0.0000      24.019938       653.6157 
 305   0.0000      24.029432       653.8741 
 306   0.0000      24.134298       656.7276 
 307   0.0000      24.245393       659.7507 
 308   0.0000      35.451198       964.6761 
 309   0.0000      35.736557       972.4412 
 310   0.0000      49.923069      1358.4758 
 311   0.0000      50.030928      1361.4108 
 312   0.0000      66.806348      1817.8932 
 313   0.0000     188.965419      5142.0105 

--------------------
FRAGMENT INFORMATION
--------------------
Fragment  1:    0   1   2   3   4   5 
Fragment  2:    6   7   8   9  10  11  12 
Fragment  3:   13  14  15  16 
Fragment  4:   17 


                    ********************************
                    * MULLIKEN POPULATION ANALYSIS *
                    ********************************

-------------------------
MULLIKEN FRAGMENT CHARGES
-------------------------
 Fragment   0 :  -0.484396
 Fragment   1 :   0.484340
 Fragment   2 :  -0.028945
 Fragment   3 :  -0.971000
Sum of fragment charges:   -1.0000000

---------------------------------
MULLIKEN FRAGMENT OVERLAP CHARGES
---------------------------------
                  0          1          2          3    
      0      18.051061   0.526034  -0.000024  -0.000081
      1       0.526034  35.036498   0.000012   0.000167
      2      -0.000024   0.000012  11.655497  -0.692823
      3      -0.000081   0.000167  -0.692823  17.317369

-----------------------
MULLIKEN ATOMIC CHARGES
-----------------------
   0 C :    0.015287
   1 N :   -0.197256
   2 C :   -0.275499
   3 C :   -0.343879
   4 C :    0.529912
   5 C :   -0.212961
   6 N :    0.001755
   7 O :   -0.166977
   8 O :   -0.116652
   9 F :   -0.119883
  10 H :    0.284472
  11 H :    0.278210
  12 H :    0.323416
  13 C :   -0.409250
  14 H :    0.126622
  15 H :    0.126942
  16 H :    0.126741
  17 S :   -0.971000
Sum of atomic charges:   -1.0000000

--------------------------------
MULLIKEN REDUCED ORBITAL CHARGES
--------------------------------
  0 C s       :     3.218345  s :     3.218345
      pz      :     0.675496  p :     2.596438
      px      :     0.975055
      py      :     0.945887
      dz2     :     0.057129  d :     0.169931
      dxz     :     0.050454
      dyz     :     0.029372
      dx2y2   :     0.014623
      dxy     :     0.018352
  1 N s       :     3.606021  s :     3.606021
      pz      :     1.151340  p :     3.556733
      px      :     1.251334
      py      :     1.154059
      dz2     :     0.008740  d :     0.034503
      dxz     :     0.008609
      dyz     :     0.005244
      dx2y2   :     0.006086
      dxy     :     0.005824
  2 C s       :     3.311446  s :     3.311446
      pz      :     0.826069  p :     2.875104
      px      :     1.176036
      py      :     0.873000
      dz2     :     0.025135  d :     0.088948
      dxz     :     0.033526
      dyz     :     0.015891
      dx2y2   :     0.007890
      dxy     :     0.006507
  3 C s       :     3.274080  s :     3.274080
      pz      :     1.159310  p :     3.014156
      px      :     0.885392
      py      :     0.969454
      dz2     :     0.015897  d :     0.055643
      dxz     :     0.018405
      dyz     :     0.005646
      dx2y2   :     0.008177
      dxy     :     0.007518
  4 C s       :     2.377174  s :     2.377174
      pz      :     0.935870  p :     3.033243
      px      :     1.247732
      py      :     0.849642
      dz2     :     0.017205  d :     0.059670
      dxz     :     0.016133
      dyz     :     0.011303
      dx2y2   :     0.007808
      dxy     :     0.007221
  5 C s       :     3.362545  s :     3.362545
      pz      :     1.144060  p :     2.776842
      px      :     0.505099
      py      :     1.127683
      dz2     :     0.013168  d :     0.073574
      dxz     :     0.030890
      dyz     :     0.010295
      dx2y2   :     0.011076
      dxy     :     0.008145
  6 N s       :     3.485009  s :     3.485009
      pz      :     1.033747  p :     3.374349
      px      :     1.231985
      py      :     1.108616
      dz2     :     0.038141  d :     0.138887
      dxz     :     0.045080
      dyz     :     0.029085
      dx2y2   :     0.011924
      dxy     :     0.014657
  7 O s       :     3.808236  s :     3.808236
      pz      :     1.023881  p :     4.340570
      px      :     1.839920
      py      :     1.476769
      dz2     :     0.009750  d :     0.018172
      dxz     :     0.003261
      dyz     :     0.005001
      dx2y2   :     0.000096
      dxy     :     0.000063
  8 O s       :     3.783809  s :     3.783809
      pz      :     1.548727  p :     4.312704
      px      :     1.331895
      py      :     1.432081
      dz2     :     0.002429  d :     0.020139
      dxz     :     0.007426
      dyz     :     0.002085
      dx2y2   :     0.004192
      dxy     :     0.004007
  9 F s       :     3.917675  s :     3.917675
      pz      :     1.399195  p :     5.196978
      px      :     1.918544
      py      :     1.879239
      dz2     :     0.003046  d :     0.005230
      dxz     :     0.000973
      dyz     :     0.001171
      dx2y2   :     0.000030
      dxy     :     0.000010
 10 H s       :     0.692238  s :     0.692238
      pz      :     0.004504  p :     0.023290
      px      :     0.014465
      py      :     0.004322
 11 H s       :     0.696601  s :     0.696601
      pz      :     0.016407  p :     0.025189
      px      :     0.003791
      py      :     0.004991
 12 H s       :     0.650739  s :     0.650739
      pz      :     0.007435  p :     0.025845
      px      :     0.013983
      py      :     0.004427
 13 C s       :     3.268630  s :     3.268630
      pz      :     1.028043  p :     3.088011
      px      :     1.054815
      py      :     1.005153
      dz2     :     0.006985  d :     0.052609
      dxz     :     0.013426
      dyz     :     0.012450
      dx2y2   :     0.015120
      dxy     :     0.004627
 14 H s       :     0.850649  s :     0.850649
      pz      :     0.005851  p :     0.022728
      px      :     0.012079
      py      :     0.004798
 15 H s       :     0.850321  s :     0.850321
      pz      :     0.009776  p :     0.022737
      px      :     0.008247
      py      :     0.004714
 16 H s       :     0.850539  s :     0.850539
      pz      :     0.006984  p :     0.022720
      px      :     0.004678
      py      :     0.011058
 17 S s       :     6.023055  s :     6.023055
      pz      :     3.623101  p :    10.916506
      px      :     3.928841
      py      :     3.364563
      dz2     :     0.002946  d :     0.031440
      dxz     :     0.003073
      dyz     :     0.014331
      dx2y2   :     0.006542
      dxy     :     0.004547


                     *******************************
                     * LOEWDIN POPULATION ANALYSIS *
                     *******************************

------------------------
LOEWDIN FRAGMENT CHARGES
------------------------
 Fragment   0 :   0.031447
 Fragment   1 :  -0.031451
 Fragment   2 :  -0.355615
 Fragment   3 :  -0.644381

----------------------------
LOEWDIN FRAGMENT BOND ORDERS
----------------------------
                  0          1          2          3    
      0      57.200103   6.725399   0.000007   0.000043
      1       6.725399  44.209131   0.000007   0.000046
      2       0.000007   0.000007  15.419762   1.742826
      3       0.000043   0.000046   1.742826  16.644381

----------------------
LOEWDIN ATOMIC CHARGES
----------------------
   0 C :    0.082288
   1 N :   -0.081931
   2 C :    0.056405
   3 C :   -0.034101
   4 C :    0.073193
   5 C :   -0.064407
   6 N :    0.202728
   7 O :   -0.219462
   8 O :   -0.194330
   9 F :   -0.088853
  10 H :    0.083378
  11 H :    0.085647
  12 H :    0.099440
  13 C :   -0.359009
  14 H :    0.001100
  15 H :    0.001191
  16 H :    0.001102
  17 S :   -0.644381

-------------------------------
LOEWDIN REDUCED ORBITAL CHARGES
-------------------------------
  0 C s       :     2.731113  s :     2.731113
      pz      :     0.851662  p :     2.835973
      px      :     1.095795
      py      :     0.888516
      dz2     :     0.121752  d :     0.350626
      dxz     :     0.104112
      dyz     :     0.052053
      dx2y2   :     0.037202
      dxy     :     0.035507
  1 N s       :     3.109075  s :     3.109075
      pz      :     1.300434  p :     3.907915
      px      :     1.433776
      py      :     1.173705
      dz2     :     0.018984  d :     0.064941
      dxz     :     0.018360
      dyz     :     0.009087
      dx2y2   :     0.010709
      dxy     :     0.007801
  2 C s       :     2.774359  s :     2.774359
      pz      :     1.042561  p :     2.975546
      px      :     1.092518
      py      :     0.840466
      dz2     :     0.064242  d :     0.193689
      dxz     :     0.072959
      dyz     :     0.030591
      dx2y2   :     0.015186
      dxy     :     0.010712
  3 C s       :     2.772479  s :     2.772479
      pz      :     1.079557  p :     3.132130
      px      :     1.096759
      py      :     0.955814
      dz2     :     0.035217  d :     0.129493
      dxz     :     0.047268
      dyz     :     0.008770
      dx2y2   :     0.022402
      dxy     :     0.015835
  4 C s       :     2.769190  s :     2.769190
      pz      :     1.074722  p :     3.022809
      px      :     1.105203
      py      :     0.842884
      dz2     :     0.042555  d :     0.134808
      dxz     :     0.040585
      dyz     :     0.022846
      dx2y2   :     0.016219
      dxy     :     0.012603
  5 C s       :     2.753210  s :     2.753210
      pz      :     1.090359  p :     3.129188
      px      :     0.958608
      py      :     1.080222
      dz2     :     0.039636  d :     0.182009
      dxz     :     0.074061
      dyz     :     0.020009
      dx2y2   :     0.030957
      dxy     :     0.017345
  6 N s       :     2.997870  s :     2.997870
      pz      :     1.219760  p :     3.530677
      px      :     1.230469
      py      :     1.080448
      dz2     :     0.080762  d :     0.268725
      dxz     :     0.092513
      dyz     :     0.045962
      dx2y2   :     0.025597
      dxy     :     0.023891
  7 O s       :     3.574488  s :     3.574488
      pz      :     1.275281  p :     4.613338
      px      :     1.847666
      py      :     1.490391
      dz2     :     0.020466  d :     0.031636
      dxz     :     0.004828
      dyz     :     0.006159
      dx2y2   :     0.000116
      dxy     :     0.000066
  8 O s       :     3.548733  s :     3.548733
      pz      :     1.672953  p :     4.610326
      px      :     1.487605
      py      :     1.449769
      dz2     :     0.003689  d :     0.035271
      dxz     :     0.015315
      dyz     :     0.002836
      dx2y2   :     0.008180
      dxy     :     0.005250
  9 F s       :     3.713832  s :     3.713832
      pz      :     1.539811  p :     5.367765
      px      :     1.937247
      py      :     1.890708
      dz2     :     0.004689  d :     0.007256
      dxz     :     0.001171
      dyz     :     0.001345
      dx2y2   :     0.000040
      dxy     :     0.000010
 10 H s       :     0.848019  s :     0.848019
      pz      :     0.014094  p :     0.068603
      px      :     0.042836
      py      :     0.011673
 11 H s       :     0.842179  s :     0.842179
      pz      :     0.047386  p :     0.072173
      px      :     0.011377
      py      :     0.013410
 12 H s       :     0.827109  s :     0.827109
      pz      :     0.021843  p :     0.073451
      px      :     0.040167
      py      :     0.011442
 13 C s       :     2.858252  s :     2.858252
      pz      :     1.131945  p :     3.393839
      px      :     1.120556
      py      :     1.141338
      dz2     :     0.013440  d :     0.106917
      dxz     :     0.026647
      dyz     :     0.027024
      dx2y2   :     0.030761
      dxy     :     0.009045
 14 H s       :     0.927130  s :     0.927130
      pz      :     0.018220  p :     0.071770
      px      :     0.038928
      py      :     0.014621
 15 H s       :     0.927025  s :     0.927025
      pz      :     0.031747  p :     0.071784
      px      :     0.025526
      py      :     0.014511
 16 H s       :     0.927132  s :     0.927132
      pz      :     0.021479  p :     0.071766
      px      :     0.013613
      py      :     0.036673
 17 S s       :     5.613986  s :     5.613986
      pz      :     3.652887  p :    10.993246
      px      :     3.885468
      py      :     3.454891
      dz2     :     0.003291  d :     0.037148
      dxz     :     0.003577
      dyz     :     0.017246
      dx2y2   :     0.007740
      dxy     :     0.005294


                      *****************************
                      * MAYER POPULATION ANALYSIS *
                      *****************************

  NA   - Mulliken gross atomic population
  ZA   - Total nuclear charge
  QA   - Mulliken gross atomic charge
  VA   - Mayer's total valence
  BVA  - Mayer's bonded valence
  FA   - Mayer's free valence

  ATOM       NA         ZA         QA         VA         BVA        FA
  0 C      5.9847     6.0000     0.0153     4.2606     4.2606     0.0000
  1 N      7.1973     7.0000    -0.1973     2.7298     2.7298    -0.0000
  2 C      6.2755     6.0000    -0.2755     4.0257     4.0257    -0.0000
  3 C      6.3439     6.0000    -0.3439     4.5143     4.5143    -0.0000
  4 C      5.4701     6.0000     0.5299     4.0197     4.0197    -0.0000
  5 C      6.2130     6.0000    -0.2130     3.4139     3.4139     0.0000
  6 N      6.9982     7.0000     0.0018     3.9957     3.9957     0.0000
  7 O      8.1670     8.0000    -0.1670     2.1160     2.1160     0.0000
  8 O      8.1167     8.0000    -0.1167     2.1928     2.1928    -0.0000
  9 F      9.1199     9.0000    -0.1199     0.9240     0.9240    -0.0000
 10 H      0.7155     1.0000     0.2845     0.8736     0.8736    -0.0000
 11 H      0.7218     1.0000     0.2782     0.9089     0.9089    -0.0000
 12 H      0.6766     1.0000     0.3234     0.8345     0.8345     0.0000
 13 C      6.4093     6.0000    -0.4093     3.5648     3.5648    -0.0000
 14 H      0.8734     1.0000     0.1266     0.9426     0.9426    -0.0000
 15 H      0.8731     1.0000     0.1269     0.9425     0.9425    -0.0000
 16 H      0.8733     1.0000     0.1267     0.9424     0.9424    -0.0000
 17 S     16.9710    16.0000    -0.9710     0.5898     0.5898    -0.0000

  Mayer bond orders larger than 0.100000
B(  0-C ,  1-N ) :   1.3036 B(  0-C ,  2-C ) :   0.1770 B(  0-C ,  3-C ) :   0.1819 
B(  0-C ,  4-C ) :   0.2644 B(  0-C ,  5-C ) :   1.2334 B(  0-C ,  6-N ) :  -0.1924 
B(  0-C ,  8-O ) :  -0.1088 B(  0-C ,  9-F ) :   1.3351 B(  1-N ,  2-C ) :   1.1686 
B(  1-N ,  5-C ) :   0.1981 B(  2-C ,  3-C ) :   1.6713 B(  2-C ,  5-C ) :   0.1038 
B(  2-C , 10-H ) :   0.8832 B(  3-C ,  4-C ) :   1.4035 B(  3-C ,  5-C ) :   0.1636 
B(  3-C ,  8-O ) :   0.1623 B(  3-C , 11-H ) :   0.8381 B(  4-C ,  5-C ) :   1.5321 
B(  4-C ,  8-O ) :   0.2420 B(  4-C ,  9-F ) :  -0.1226 B(  4-C , 12-H ) :   0.7210 
B(  5-C ,  6-N ) :   0.6600 B(  5-C ,  7-O ) :  -0.1056 B(  5-C ,  8-O ) :  -0.2065 
B(  5-C ,  9-F ) :  -0.3205 B(  5-C , 12-H ) :   0.1409 B(  6-N ,  7-O ) :   1.8196 
B(  6-N ,  8-O ) :   1.8396 B(  7-O ,  8-O ) :   0.2494 B( 13-C , 14-H ) :   0.9817 
B( 13-C , 15-H ) :   0.9810 B( 13-C , 16-H ) :   0.9822 B( 13-C , 17-S ) :   0.6200 


-------
TIMINGS
-------

Total SCF time: 0 days 0 hours 0 min 14 sec 

Total time                  ....      14.043 sec
Sum of individual times     ....      13.382 sec  ( 95.3%)

Fock matrix formation       ....      11.323 sec  ( 80.6%)
  Split-RI-J                ....       0.751 sec  (  6.6% of F)
  Chain of spheres X        ....       8.680 sec  ( 76.7% of F)
  XC integration            ....       0.870 sec  (  7.7% of F)
    Basis function eval.    ....       0.104 sec  ( 11.9% of XC)
    Density eval.           ....       0.113 sec  ( 13.0% of XC)
    XC-Functional eval.     ....       0.082 sec  (  9.4% of XC)
    XC-Potential eval.      ....       0.079 sec  (  9.1% of XC)
Diagonalization             ....       0.027 sec  (  0.2%)
Density matrix formation    ....       0.010 sec  (  0.1%)
Population analysis         ....       0.285 sec  (  2.0%)
Initial guess               ....       0.039 sec  (  0.3%)
Orbital Transformation      ....       0.000 sec  (  0.0%)
Orbital Orthonormalization  ....       0.020 sec  (  0.1%)
DIIS solution               ....       0.012 sec  (  0.1%)
SOSCF solution              ....       0.095 sec  (  0.7%)
Grid generation             ....       1.591 sec  ( 11.3%)

Maximum memory used throughout the entire SCF-calculation: 68.0 MB

-------------------------   --------------------
FINAL SINGLE POINT ENERGY      -990.265230363147
-------------------------   --------------------

                                *** OPTIMIZATION RUN DONE ***

                            ***************************************
                            *     ORCA property calculations      *
                            ***************************************

                                    ---------------------
                                    Active property flags
                                    ---------------------
   (+) Dipole Moment


------------------------------------------------------------------------------
                       ORCA ELECTRIC PROPERTIES CALCULATION
------------------------------------------------------------------------------

Dipole Moment Calculation                       ... on
Quadrupole Moment Calculation                   ... off
Polarizability Calculation                      ... off
GBWName                                         ... structure_opt.gbw
Electron density                                ... structure_opt.scfp
The origin for moment calculation is the CENTER OF MASS  = (-2.151630,  2.960130  1.293713)

-------------
DIPOLE MOMENT
-------------
                                X             Y             Z
Electronic contribution:      3.11115     -19.26817      16.71384
Nuclear contribution   :     -0.84275      12.29591      -5.10634
                        -----------------------------------------
Total Dipole Moment    :      2.26840      -6.97226      11.60750
                        -----------------------------------------
Magnitude (a.u.)       :     13.72924
Magnitude (Debye)      :     34.89697



--------------------
Rotational spectrum 
--------------------
 
Rotational constants in cm-1:     0.040972     0.005328     0.004982 
Rotational constants in MHz :  1228.304045   159.720560   149.363275 

 Dipole components along the rotational axes: 
x,y,z [a.u.] :    13.639645    -0.080340    -1.563901 
x,y,z [Debye]:    34.669222    -0.204208    -3.975120 

 

Timings for individual modules:

Sum of individual times         ...     1147.783 sec (=  19.130 min)
GTO integral calculation        ...       64.981 sec (=   1.083 min)   5.7 %
SCF iterations                  ...      885.242 sec (=  14.754 min)  77.1 %
SCF Gradient evaluation         ...      195.844 sec (=   3.264 min)  17.1 %
Geometry relaxation             ...        1.717 sec (=   0.029 min)   0.1 %
                             ****ORCA TERMINATED NORMALLY****
TOTAL RUN TIME: 0 days 0 hours 20 minutes 24 seconds 681 msec
