
                                 *****************
                                 * O   R   C   A *
                                 *****************

                                            #,                                       
                                            ###                                      
                                            ####                                     
                                            #####                                    
                                            ######                                   
                                           ########,                                 
                                     ,,################,,,,,                         
                               ,,#################################,,                 
                          ,,##########################################,,             
                       ,#########################################, ''#####,          
                    ,#############################################,,   '####,        
                  ,##################################################,,,,####,       
                ,###########''''           ''''###############################       
              ,#####''   ,,,,##########,,,,          '''####'''          '####       
            ,##' ,,,,###########################,,,                        '##       
           ' ,,###''''                  '''############,,,                           
         ,,##''                                '''############,,,,        ,,,,,,###''
      ,#''                                            '''#######################'''  
     '                                                          ''''####''''         
             ,#######,   #######,   ,#######,      ##                                
            ,#'     '#,  ##    ##  ,#'     '#,    #''#        ######   ,####,        
            ##       ##  ##   ,#'  ##            #'  '#       #        #'  '#        
            ##       ##  #######   ##           ,######,      #####,   #    #        
            '#,     ,#'  ##    ##  '#,     ,#' ,#      #,         ##   #,  ,#        
             '#######'   ##     ##  '#######'  #'      '#     #####' # '####'        



                  #######################################################
                  #                        -***-                        #
                  #          Department of theory and spectroscopy      #
                  #    Directorship and core code : Frank Neese         #
                  #        Max Planck Institute fuer Kohlenforschung    #
                  #                Kaiser Wilhelm Platz 1               #
                  #                 D-45470 Muelheim/Ruhr               #
                  #                      Germany                        #
                  #                                                     #
                  #                  All rights reserved                #
                  #                        -***-                        #
                  #######################################################


                         Program Version 5.0.4 -  RELEASE  -


 With contributions from (in alphabetic order):
   Daniel Aravena         : Magnetic Suceptibility
   Michael Atanasov       : Ab Initio Ligand Field Theory (pilot matlab implementation)
   Alexander A. Auer      : GIAO ZORA, VPT2 properties, NMR spectrum
   Ute Becker             : Parallelization
   Giovanni Bistoni       : ED, misc. LED, open-shell LED, HFLD
   Martin Brehm           : Molecular dynamics
   Dmytro Bykov           : SCF Hessian
   Vijay G. Chilkuri      : MRCI spin determinant printing, contributions to CSF-ICE
   Dipayan Datta          : RHF DLPNO-CCSD density
   Achintya Kumar Dutta   : EOM-CC, STEOM-CC
   Dmitry Ganyushin       : Spin-Orbit,Spin-Spin,Magnetic field MRCI
   Miquel Garcia          : C-PCM and meta-GGA Hessian, CC/C-PCM, Gaussian charge scheme
   Yang Guo               : DLPNO-NEVPT2, F12-NEVPT2, CIM, IAO-localization
   Andreas Hansen         : Spin unrestricted coupled pair/coupled cluster methods
   Benjamin Helmich-Paris : MC-RPA, TRAH-SCF, COSX integrals
   Lee Huntington         : MR-EOM, pCC
   Robert Izsak           : Overlap fitted RIJCOSX, COSX-SCS-MP3, EOM
   Marcus Kettner         : VPT2
   Christian Kollmar      : KDIIS, OOCD, Brueckner-CCSD(T), CCSD density, CASPT2, CASPT2-K
   Simone Kossmann        : Meta GGA functionals, TD-DFT gradient, OOMP2, MP2 Hessian
   Martin Krupicka        : Initial AUTO-CI
   Lucas Lang             : DCDCAS
   Marvin Lechner         : AUTO-CI (C++ implementation), FIC-MRCC
   Dagmar Lenk            : GEPOL surface, SMD
   Dimitrios Liakos       : Extrapolation schemes; Compound Job, initial MDCI parallelization
   Dimitrios Manganas     : Further ROCIS development; embedding schemes
   Dimitrios Pantazis     : SARC Basis sets
   Anastasios Papadopoulos: AUTO-CI, single reference methods and gradients
   Taras Petrenko         : DFT Hessian,TD-DFT gradient, ASA, ECA, R-Raman, ABS, FL, XAS/XES, NRVS
   Peter Pinski           : DLPNO-MP2, DLPNO-MP2 Gradient
   Christoph Reimann      : Effective Core Potentials
   Marius Retegan         : Local ZFS, SOC
   Christoph Riplinger    : Optimizer, TS searches, QM/MM, DLPNO-CCSD(T), (RO)-DLPNO pert. Triples
   Tobias Risthaus        : Range-separated hybrids, TD-DFT gradient, RPA, STAB
   Michael Roemelt        : Original ROCIS implementation
   Masaaki Saitow         : Open-shell DLPNO-CCSD energy and density
   Barbara Sandhoefer     : DKH picture change effects
   Avijit Sen             : IP-ROCIS
   Kantharuban Sivalingam : CASSCF convergence, NEVPT2, FIC-MRCI
   Bernardo de Souza      : ESD, SOC TD-DFT
   Georgi Stoychev        : AutoAux, RI-MP2 NMR, DLPNO-MP2 response
   Willem Van den Heuvel  : Paramagnetic NMR
   Boris Wezisla          : Elementary symmetry handling
   Frank Wennmohs         : Technical directorship


 We gratefully acknowledge several colleagues who have allowed us to
 interface, adapt or use parts of their codes:
   Stefan Grimme, W. Hujo, H. Kruse, P. Pracht,  : VdW corrections, initial TS optimization,
                  C. Bannwarth, S. Ehlert          DFT functionals, gCP, sTDA/sTD-DF
   Ed Valeev, F. Pavosevic, A. Kumar             : LibInt (2-el integral package), F12 methods
   Garnet Chan, S. Sharma, J. Yang, R. Olivares  : DMRG
   Ulf Ekstrom                                   : XCFun DFT Library
   Mihaly Kallay                                 : mrcc  (arbitrary order and MRCC methods)
   Jiri Pittner, Ondrej Demel                    : Mk-CCSD
   Frank Weinhold                                : gennbo (NPA and NBO analysis)
   Christopher J. Cramer and Donald G. Truhlar   : smd solvation model
   Lars Goerigk                                  : TD-DFT with DH, B97 family of functionals
   V. Asgeirsson, H. Jonsson                     : NEB implementation
   FAccTs GmbH                                   : IRC, NEB, NEB-TS, DLPNO-Multilevel, CI-OPT
                                                   MM, QMMM, 2- and 3-layer-ONIOM, Crystal-QMMM,
                                                   LR-CPCM, SF, NACMEs, symmetry and pop. for TD-DFT,
                                                   nearIR, NL-DFT gradient (VV10), updates on ESD,
                                                   ML-optimized integration grids
   S Lehtola, MJT Oliveira, MAL Marques          : LibXC Library
   Liviu Ungur et al                             : ANISO software


 Your calculation uses the libint2 library for the computation of 2-el integrals
 For citations please refer to: http://libint.valeyev.net

 Your ORCA version has been built with support for libXC version: 5.1.0
 For citations please refer to: https://tddft.org/programs/libxc/

 This ORCA versions uses:
   CBLAS   interface :  Fast vector & matrix operations
   LAPACKE interface :  Fast linear algebra routines
   SCALAPACK package :  Parallel linear algebra routines
   Shared memory     :  Shared parallel matrices
   BLAS/LAPACK       :  OpenBLAS 0.3.15  USE64BITINT DYNAMIC_ARCH NO_AFFINITY SkylakeX SINGLE_THREADED
        Core in use  :  SkylakeX
   Copyright (c) 2011-2014, The OpenBLAS Project




***************************************
The coordinates will be read from file: reactants.xyz
***************************************


Your calculation utilizes the SMD solvation module
Please cite in your paper:
A.V. Marenich, C.J. Cramer, D.G. Truhlar J. Phys. Chem. B, 113, (2009), 6378 

XCFun DFT library Copyright 2009-2010 Ulf Ekstrom and contributors.
See http://admol.org/xcfun for more information.
This is free software; see the source code for copying conditions.
There is ABSOLUTELY NO WARRANTY; not even for MERCHANTABILITY or FITNESS FOR A PARTICULAR PURPOSE.
For details see the documentation.
Scientific users of this library should cite U. Ekstrom, L. Visscher, R. Bast, A. J. Thorvaldsen and K. Ruud;
J.Chem.Theor.Comp. 2010, DOI: 10.1021/ct100117s
XCFun Version 0.99 

================================================================================

----- Orbital basis set information -----
Your calculation utilizes the basis: 6-311++G**
   H, Li - Ne  : R. Krishnan, J. S. Binkley, R. Seeger and J. A. Pople, J. Chem. Phys. 72, 650 (1980).
   Na - Ar     : A. D. McLean and G. S. Chandler J. Chem. Phys. 72, 5639, (1980).
   K  - Ca     : J.-P. Blaudeau, M. P. McGrath, L. A. Curtiss and L. Radom, J. Chem. Phys. 107, 5016 (1997).
   Ga - Kr     : L. A. Curtiss, M. P. McGrath, J.-P. Blandeau, N. E. Davis, R. C. Binning and L. Radom, J. Chem. Phys. 103, 6104 (1995).
   Pol./Diff.
   H, Li - Cl  : T. Clark, J. Chandrasekhar and P. v. R. Schleyer, J. Comp. Chem. 4, 294 (1983).
   H - Ne      : M. J. Frisch, J. A. Pople and J. S. Binkley, J. Chem. Phys. 80, 3265 (1984).

----- AuxJ basis set information -----
Your calculation utilizes the auxiliary basis: def2/J
   F. Weigend, Phys. Chem. Chem. Phys. 8, 1057 (2006).

================================================================================
                                        WARNINGS
                       Please study these warnings very carefully!
================================================================================


WARNING: Geometry Optimization
  ===> : Switching off AutoStart
         For restart on a previous wavefunction, please use MOREAD

INFO   : the flag for use of the SHARK integral package has been found!

================================================================================
                                       INPUT FILE
================================================================================
NAME = structure_opt.inp
|  1> !wb97x 6-311++G** OPT CPCM(WATER)
|  2> %maxcore  3500
|  3> %pal
|  4> nprocs 24
|  5> end
|  6> %cpcm
|  7> smd true
|  8> SMDsolvent "water"
|  9> end
| 10> %geom
| 11> ConstrainFragments {1} end
| 12> ConstrainFragments {4} end
| 13> ConnectFragments
| 14> { 1 2 C 5 7 }
| 15> { 1 2 C 0 9 }
| 16> { 2 3 C 13 5 }
| 17> { 3 4 C 13 17 }
| 18> end
| 19> end
| 20> * XYZfile -1 1 reactants.xyz
| 21> %geom
| 22> Fragments
| 23> 1 {0:5} end
| 24> 2 {6:12} end
| 25> 3 {13:16} end
| 26> 4 {17} end
| 27> end
| 28> end
| 29> 
| 30>                          ****END OF INPUT****
================================================================================

                       *****************************
                       * Geometry Optimization Run *
                       *****************************

Geometry optimization settings:
Update method            Update   .... BFGS
Choice of coordinates    CoordSys .... Z-matrix Internals
Initial Hessian          InHess   .... Almoef's Model

Convergence Tolerances:
Energy Change            TolE     ....  5.0000e-06 Eh
Max. Gradient            TolMAXG  ....  3.0000e-04 Eh/bohr
RMS Gradient             TolRMSG  ....  1.0000e-04 Eh/bohr
Max. Displacement        TolMAXD  ....  4.0000e-03 bohr
RMS Displacement         TolRMSD  ....  2.0000e-03 bohr
Strict Convergence                ....  False
------------------------------------------------------------------------------
                        ORCA OPTIMIZATION COORDINATE SETUP
------------------------------------------------------------------------------

The optimization will be done in new redundant internal coordinates
Making redundant internal coordinates   ...  (new redundants) done
Evaluating the initial hessian          ...  (Almloef) done
Evaluating the coordinates              ...  done
Calculating the B-matrix                .... done
Calculating the G-matrix                .... done
Diagonalizing the G-matrix              .... done
Imposing constraints:
 Iter   0:  RMS(Cart)=    0.0000000000 RMS(Int)=    0.0000000000
CONVERGED
Small eigenvalue found = 1.171e-02
Small eigenvalue found = 2.626e-02
The first mode is                       ....   66
The number of degrees of freedom        ....   48
Storing new coordinates                 .... done

    -----------------------------------------------------------------
                    Redundant Internal Coordinates


    -----------------------------------------------------------------
         Definition                    Initial Value    Approx d2E/dq
    -----------------------------------------------------------------
      1. B(N   1,C   0)                  1.3611         0.622347   
      2. B(C   2,N   1)                  1.3582         0.628875   
      3. B(C   3,C   2)                  1.3949         0.613658   
      4. B(C   4,C   3)                  1.3934         0.616971   
      5. B(C   5,C   0)                  1.4122         0.575774   
      6. B(C   5,C   4)                  1.4061         0.588917   
      7. B(O   7,C   5)                  2.3435         0.016853 C 
      8. B(O   7,N   6)                  1.2480         0.844503   
      9. B(O   8,N   6)                  1.3769         0.525866   
     10. B(F   9,C   0)                  1.3500         0.602260 C 
     11. B(F   9,N   6)                  2.8678         0.002044   
     12. B(F   9,O   7)                  2.5821         0.005837   
     13. B(H  11,H  10)                  2.4818         0.000415   
     14. B(H  12,O   8)                  2.5152         0.001717   
     15. B(H  12,H  11)                  2.4663         0.000439   
     16. B(H  12,N   6)                  2.7029         0.000861   
     17. B(C  13,O   8)                  6.3434         0.000000 C 
     18. B(H  14,C  13)                  1.0936         0.355305   
     19. B(H  15,C  13)                  1.0931         0.355966   
     20. B(H  16,C  13)                  1.0931         0.355995   
     21. B(S  17,C  13)                  1.8034         0.368927 C 
     22. A(N   1,C   0,C   5)          120.1571         0.425830   
     23. A(N   1,C   0,F   9)          118.6704         0.424592 C 
     24. A(C   5,C   0,F   9)          121.1725         0.421471 C 
     25. A(C   0,N   1,C   2)          121.9524         0.429796   
     26. A(N   1,C   2,C   3)          120.0262         0.431531   
     27. A(C   2,C   3,C   4)          119.3498         0.432882   
     28. A(C   3,C   4,C   5)          120.4718         0.429694   
     29. A(C   0,C   5,O   7)           94.5313         0.237820 C 
     30. A(C   0,C   5,C   4)          118.0425         0.424407   
     31. A(C   4,C   5,O   7)          147.4261         0.238582 C 
     32. A(F   9,N   6,H  12)          110.0144         0.106848   
     33. A(O   8,N   6,H  12)           67.2752         0.152046   
     34. A(O   7,N   6,H  12)          174.2234         0.159181   
     35. A(O   7,N   6,O   8)          118.5014         0.433822   
     36. A(O   7,N   6,F   9)           64.2090         0.186619   
     37. A(N   6,O   7,F   9)           89.9947         0.212791   
     38. A(C   5,O   7,N   6)           31.7456         0.248611 C 
     39. A(C   5,O   7,F   9)           58.2491         0.140475 C 
     40. A(N   6,O   8,H  12)           82.3972         0.162696   
     41. A(H  12,O   8,C  13)          138.2325         0.090226 C 
     42. A(N   6,O   8,C  13)          109.8266         0.094153 C 
     43. A(C   0,F   9,O   7)           86.0471         0.203997 C 
     44. A(N   6,F   9,O   7)           25.7962         0.120482   
     45. A(C   0,F   9,N   6)           60.2509         0.179684 C 
     46. A(H  10,H  11,H  12)          119.7063         0.095112   
     47. A(N   6,H  12,O   8)           30.3275         0.103999   
     48. A(N   6,H  12,H  11)          126.7169         0.097913   
     49. A(O   8,H  12,H  11)          157.0445         0.099419   
     50. A(H  14,C  13,H  15)          109.0208         0.289703   
     51. A(H  14,C  13,H  16)          108.9499         0.289706   
     52. A(H  15,C  13,H  16)          109.0251         0.289791   
     53. A(O   8,C  13,H  14)          131.4109         0.093147 C 
     54. A(O   8,C  13,S  17)           29.2200         0.094176   
     55. A(O   8,C  13,H  15)          110.9776         0.093149 C 
     56. A(O   8,C  13,H  16)           82.7170         0.093149 C 
     57. A(H  14,C  13,S  17)          109.9305         0.339365 C 
     58. A(H  15,C  13,S  17)          109.9856         0.339471 C 
     59. A(H  16,C  13,S  17)          109.9032         0.339475 C 
     60. D(C   2,N   1,C   0,C   5)     -0.1041         0.028432   
     61. D(C   2,N   1,C   0,F   9)    179.9112         0.028432 C 
     62. D(C   3,C   2,N   1,C   0)      0.1066         0.025783   
     63. D(C   4,C   3,C   2,N   1)     -0.0956         0.020965   
     64. D(C   5,C   4,C   3,C   2)      0.0854         0.021202   
     65. D(O   7,C   5,C   0,F   9)     -0.0223         0.022761 C 
     66. D(O   7,C   5,C   4,C   3)   -179.9036         0.021656 C 
     67. D(O   7,C   5,C   0,N   1)    179.9933         0.022761 C 
     68. D(C   4,C   5,C   0,N   1)      0.0896         0.022761   
     69. D(C   0,C   5,C   4,C   3)     -0.0818         0.021656   
     70. D(C   4,C   5,C   0,F   9)   -179.9260         0.022761 C 
     71. D(N   6,O   7,C   5,C   4)     -0.1099         0.001517 C 
     72. D(N   6,O   7,C   5,C   0)   -179.9521         0.001517 C 
     73. D(F   9,O   7,C   5,C   4)    179.8539         0.001517 C 
     74. D(F   9,O   7,C   5,C   0)      0.0117         0.001517 C 
     75. D(F   9,O   7,N   6,O   8)    179.9932         0.079747   
     76. D(F   9,O   7,N   6,H  12)      0.1568         0.079747   
     77. D(C   5,O   7,N   6,O   8)   -179.9761         0.079747 C 
     78. D(C   5,O   7,N   6,H  12)      0.1876         0.079747 C 
     79. D(C   5,O   7,N   6,F   9)      0.0308         0.079747 C 
     80. D(C  13,O   8,N   6,O   7)    -41.2392         0.027866 C 
     81. D(C  13,O   8,N   6,H  12)    138.7429         0.027866 C 
     82. D(H  12,O   8,N   6,O   7)   -179.9821         0.027866   
     83. D(N   6,F   9,O   7,C   5)     -0.0190         0.001503 C 
     84. D(N   6,F   9,C   0,N   1)   -179.9918         0.032536 C 
     85. D(N   6,F   9,C   0,C   5)      0.0236         0.032536 C 
     86. D(O   7,F   9,N   6,H  12)   -179.9832         0.001500   
     87. D(C   0,F   9,N   6,O   7)   -179.9922         0.001500 C 
     88. D(C   0,F   9,N   6,H  12)      0.0246         0.001500 C 
     89. D(O   7,F   9,C   0,C   5)      0.0202         0.032536 C 
     90. D(O   7,F   9,C   0,N   1)   -179.9952         0.032536 C 
     91. D(C   0,F   9,O   7,N   6)      0.0068         0.001503 C 
     92. D(C   0,F   9,O   7,C   5)     -0.0123         0.001503 C 
     93. D(O   7,F   9,O   8,H  12)   -179.9897         0.001500   
     94. D(O   7,F   9,O   8,C  13)    -41.7011         0.001500 C 
     95. D(C   0,F   9,O   8,H  12)      0.0232         0.001500 C 
     96. D(C   0,F   9,O   8,C  13)    138.3118         0.001500   
     97. D(O   8,H  12,H  11,H  10)      0.0710         0.001502   
     98. D(O   8,H  12,N   6,F   9)    179.9943         0.001501   
     99. D(H  11,H  12,N   6,O   7)     -0.1748         0.001501   
    100. D(H  11,H  12,N   6,O   8)    179.9811         0.001501   
    101. D(H  11,H  12,N   6,F   9)     -0.0245         0.001501   
    102. D(N   6,H  12,O   8,C  13)   -111.3613         0.001502 C 
    103. D(H  11,H  12,O   8,N   6)     -0.0388         0.001502   
    104. D(H  11,H  12,O   8,C  13)   -111.4001         0.001502 C 
    105. D(O   8,H  12,N   6,O   7)    179.8441         0.001501   
    106. D(N   6,H  12,H  11,H  10)      0.0466         0.001502   
    107. D(S  17,C  13,O   8,H  12)    103.3963         0.001500   
    108. D(H  14,C  13,O   8,H  12)    153.1776         0.001500 C 
    109. D(H  15,C  13,O   8,N   6)    -91.3968         0.001500 C 
    110. D(H  15,C  13,O   8,H  12)      9.7061         0.001500 C 
    111. D(H  16,C  13,O   8,N   6)    160.9677         0.001500 C 
    112. D(H  16,C  13,O   8,H  12)    -97.9293         0.001500 C 
    113. D(H  14,C  13,O   8,N   6)     52.0747         0.001500 C 
    114. D(S  17,C  13,O   8,N   6)      2.2933         0.001500   
    -----------------------------------------------------------------

Number of atoms                         .... 18
Number of degrees of freedom            .... 114

         *************************************************************
         *                GEOMETRY OPTIMIZATION CYCLE   1            *
         *************************************************************
---------------------------------
CARTESIAN COORDINATES (ANGSTROEM)
---------------------------------
  C      0.000000    0.000000    1.820000
  N      1.178000   -0.196000    2.473000
  C      1.255000   -0.207000    3.829000
  C      0.105000   -0.016000    4.595000
  C     -1.116000    0.187000    3.955000
  C     -1.192000    0.198000    2.551000
  N     -2.456000    0.409000    1.893000
  O     -2.541000    0.423000    0.648000
  O     -3.602000    0.600000    2.632000
  F      0.000000    0.000000    0.470000
  H      2.209000   -0.366000    4.313000
  H      0.163000   -0.026000    5.676000
  H     -2.005000    0.335000    4.557000
  C     -7.122000    5.174000    0.000000
  H     -7.484000    5.310000   -1.023000
  H     -6.874000    6.151000    0.423000
  H     -7.914000    4.717000    0.599000
  S     -5.663000    4.114000    0.000000

----------------------------
CARTESIAN COORDINATES (A.U.)
----------------------------
  NO LB      ZA    FRAG     MASS         X           Y           Z
   0 C     6.0000    1    12.011    0.000000    0.000000    3.439302
   1 N     7.0000    1    14.007    2.226097   -0.370386    4.673293
   2 C     6.0000    1    12.011    2.371606   -0.391173    7.235761
   3 C     6.0000    1    12.011    0.198421   -0.030236    8.683292
   4 C     6.0000    1    12.011   -2.108934    0.353379    7.473867
   5 C     6.0000    1    12.011   -2.252554    0.374166    4.820691
   6 N     7.0000    2    14.007   -4.641167    0.772898    3.577252
   7 O     8.0000    2    15.999   -4.801794    0.799354    1.224543
   8 O     8.0000    2    15.999   -6.806794    1.133836    4.973759
   9 F     9.0000    2    18.998    0.000000    0.000000    0.888171
  10 H     1.0000    2     1.008    4.174405   -0.691640    8.150389
  11 H     1.0000    2     1.008    0.308025   -0.049133   10.726086
  12 H     1.0000    2     1.008   -3.788901    0.633058    8.611482
  13 C     6.0000    3    12.011  -13.458630    9.777443    0.000000
  14 H     1.0000    3     1.008  -14.142710   10.034446   -1.933190
  15 H     1.0000    3     1.008  -12.989977   11.623705    0.799354
  16 H     1.0000    3     1.008  -14.955293    8.913838    1.131946
  17 S    16.0000    4    32.060  -10.701519    7.774333    0.000000

----------------------------------------------
CARTESIAN COORDINATES OF FRAGMENTS (ANGSTROEM)
----------------------------------------------

 FRAGMENT 1 
  C     0.000000    0.000000    1.820000
  N     1.178000   -0.196000    2.473000
  C     1.255000   -0.207000    3.829000
  C     0.105000   -0.016000    4.595000
  C    -1.116000    0.187000    3.955000
  C    -1.192000    0.198000    2.551000

 FRAGMENT 2 
  N    -2.456000    0.409000    1.893000
  O    -2.541000    0.423000    0.648000
  O    -3.602000    0.600000    2.632000
  F     0.000000    0.000000    0.470000
  H     2.209000   -0.366000    4.313000
  H     0.163000   -0.026000    5.676000
  H    -2.005000    0.335000    4.557000

 FRAGMENT 3 
  C    -7.122000    5.174000    0.000000
  H    -7.484000    5.310000   -1.023000
  H    -6.874000    6.151000    0.423000
  H    -7.914000    4.717000    0.599000

 FRAGMENT 4 
  S    -5.663000    4.114000    0.000000

--------------------------------
INTERNAL COORDINATES (ANGSTROEM)
--------------------------------
 C      0   0   0     0.000000000000     0.00000000     0.00000000
 N      1   0   0     1.361069065110     0.00000000     0.00000000
 C      2   1   0     1.358228993948   121.95243626     0.00000000
 C      3   2   1     1.394896770374   120.02620694     0.10655554
 C      4   3   2     1.393431017309   119.34983770   359.90435571
 C      5   4   3     1.406098502951   120.47178172     0.08537773
 N      6   5   4     1.440548853736   120.30882193   180.03842131
 O      7   6   5     1.247976762604   121.13704526   179.93147861
 O      7   6   5     1.376923382037   120.36156660   359.90709941
 F      1   2   3     1.350000000000   118.67037638   179.91115691
 H      3   2   1     1.081504969938   119.86701156   179.98746005
 H      4   3   2     1.082601034546   120.19197482   179.89186186
 H      5   4   3     1.083803026384   118.91636700   180.02085854
 C      9   7   6     6.343445436039   109.82663864   138.78451446
 H     14   9   7     1.093649395373   131.41085089    52.07465402
 H     14   9   7     1.093143174520   110.97763862   268.60317051
 H     14   9   7     1.093121219262    82.71699083   160.96770468
 S     14   9   7     1.803408162342    29.22003897     2.29332249

---------------------------
INTERNAL COORDINATES (A.U.)
---------------------------
 C      0   0   0     0.000000000000     0.00000000     0.00000000
 N      1   0   0     2.572047782411     0.00000000     0.00000000
 C      2   1   0     2.566680825712   121.95243626     0.00000000
 C      3   2   1     2.635972881098   120.02620694     0.10655554
 C      4   3   2     2.633203009226   119.34983770   359.90435571
 C      5   4   3     2.657141087893   120.47178172     0.08537773
 N      6   5   4     2.722242816095   120.30882193   180.03842131
 O      7   6   5     2.358334302820   121.13704526   179.93147861
 O      7   6   5     2.602008099442   120.36156660   359.90709941
 F      1   2   3     2.551130280794   118.67037638   179.91115691
 H      3   2   1     2.043748205657   119.86701156   179.98746005
 H      4   3   2     2.045819467592   120.19197482   179.89186186
 H      5   4   3     2.048090902982   118.91636700   180.02085854
 C      9   7   6    11.987374619586   109.82663864   138.78451446
 H     14   9   7     2.066697843784   131.41085089    52.07465402
 H     14   9   7     2.065741225008   110.97763862   268.60317051
 H     14   9   7     2.065699735583    82.71699083   160.96770468
 S     14   9   7     3.407947534504    29.22003897     2.29332249

---------------------
BASIS SET INFORMATION
---------------------
There are 6 groups of distinct atoms

 Group   1 Type C   : 12s6p1d contracted to 5s4p1d pattern {63111/3111/1}
 Group   2 Type N   : 12s6p1d contracted to 5s4p1d pattern {63111/3111/1}
 Group   3 Type O   : 12s6p1d contracted to 5s4p1d pattern {63111/3111/1}
 Group   4 Type F   : 12s6p1d contracted to 5s4p1d pattern {63111/3111/1}
 Group   5 Type H   : 6s1p contracted to 4s1p pattern {3111/1}
 Group   6 Type S   : 14s10p1d contracted to 7s6p1d pattern {6311111/421111/1}

Atom   0C    basis set group =>   1
Atom   1N    basis set group =>   2
Atom   2C    basis set group =>   1
Atom   3C    basis set group =>   1
Atom   4C    basis set group =>   1
Atom   5C    basis set group =>   1
Atom   6N    basis set group =>   2
Atom   7O    basis set group =>   3
Atom   8O    basis set group =>   3
Atom   9F    basis set group =>   4
Atom  10H    basis set group =>   5
Atom  11H    basis set group =>   5
Atom  12H    basis set group =>   5
Atom  13C    basis set group =>   1
Atom  14H    basis set group =>   5
Atom  15H    basis set group =>   5
Atom  16H    basis set group =>   5
Atom  17S    basis set group =>   6
---------------------------------
AUXILIARY/J BASIS SET INFORMATION
---------------------------------
There are 6 groups of distinct atoms

 Group   1 Type C   : 12s5p4d2f1g contracted to 6s4p3d1f1g pattern {711111/2111/211/2/1}
 Group   2 Type N   : 12s5p4d2f1g contracted to 6s4p3d1f1g pattern {711111/2111/211/2/1}
 Group   3 Type O   : 12s5p4d2f1g contracted to 6s4p3d1f1g pattern {711111/2111/211/2/1}
 Group   4 Type F   : 12s5p4d2f1g contracted to 6s4p3d1f1g pattern {711111/2111/211/2/1}
 Group   5 Type H   : 5s2p1d contracted to 3s1p1d pattern {311/2/1}
 Group   6 Type S   : 14s5p5d2f1g contracted to 8s4p3d1f1g pattern {71111111/2111/311/2/1}

Atom   0C    basis set group =>   1
Atom   1N    basis set group =>   2
Atom   2C    basis set group =>   1
Atom   3C    basis set group =>   1
Atom   4C    basis set group =>   1
Atom   5C    basis set group =>   1
Atom   6N    basis set group =>   2
Atom   7O    basis set group =>   3
Atom   8O    basis set group =>   3
Atom   9F    basis set group =>   4
Atom  10H    basis set group =>   5
Atom  11H    basis set group =>   5
Atom  12H    basis set group =>   5
Atom  13C    basis set group =>   1
Atom  14H    basis set group =>   5
Atom  15H    basis set group =>   5
Atom  16H    basis set group =>   5
Atom  17S    basis set group =>   6


           ************************************************************
           *        Program running with 24 parallel MPI-processes    *
           *              working on a common directory               *
           ************************************************************
------------------------------------------------------------------------------
                           ORCA GTO INTEGRAL CALCULATION
                           -- RI-GTO INTEGRALS CHOSEN --
------------------------------------------------------------------------------
------------------------------------------------------------------------------
                   ___                                                        
                  /   \      - P O W E R E D   B Y -                         
                 /     \                                                     
                 |  |  |   _    _      __       _____    __    __             
                 |  |  |  | |  | |    /  \     |  _  \  |  |  /  |          
                  \  \/   | |  | |   /    \    | | | |  |  | /  /          
                 / \  \   | |__| |  /  /\  \   | |_| |  |  |/  /          
                |  |  |   |  __  | /  /__\  \  |    /   |      \           
                |  |  |   | |  | | |   __   |  |    \   |  |\   \          
                \     /   | |  | | |  |  |  |  | |\  \  |  | \   \       
                 \___/    |_|  |_| |__|  |__|  |_| \__\ |__|  \__/        
                                                                              
                      - O R C A' S   B I G   F R I E N D -                    
                                      &                                       
                       - I N T E G R A L  F E E D E R -                       
                                                                              
 v1 FN, 2020, v2 2021                                                         
------------------------------------------------------------------------------


Reading SHARK input file structure_opt.SHARKINP.tmp ... ok
----------------------
SHARK INTEGRAL PACKAGE
----------------------

Number of atoms                             ...     18
Number of basis functions                   ...    314
Number of shells                            ...    154
Maximum angular momentum                    ...      2
Integral batch strategy                     ... SHARK/LIBINT Hybrid
RI-J (if used) integral strategy            ... SPLIT-RIJ (Revised 2003 algorithm where possible)
Printlevel                                  ...      1
Contraction scheme used                     ... SEGMENTED contraction
Coulomb Range Separation                    ... NOT USED
Exchange Range Separation                   ... Long Range
   Mu parameter                             ...  0.300000
   Scaling (regular/separated)              ...  0.157706  0.842294
Finite Nucleus Model                        ... NOT USED
Auxiliary Coulomb fitting basis             ... AVAILABLE
   # of basis functions in Aux-J            ...    656
   # of shells in Aux-J                     ...    212
   Maximum angular momentum in Aux-J        ...      4
Auxiliary J/K fitting basis                 ... NOT available
Auxiliary Correlation fitting basis         ... NOT available
Auxiliary 'external' fitting basis          ... NOT available
Integral threshold                          ...     2.500000e-11
Primitive cut-off                           ...     2.500000e-12
Primitive pair pre-selection threshold      ...     2.500000e-12

Calculating pre-screening integrals         ... done (  0.0 sec) Dimension = 154
Organizing shell pair data                  ... done (  0.1 sec)
Shell pair information
Total number of shell pairs                 ...     11935
Shell pairs after pre-screening             ...      8953
Total number of primitive shell pairs       ...     38500
Primitive shell pairs kept                  ...     20524
          la=0 lb=0:   2745 shell pairs
          la=1 lb=0:   3685 shell pairs
          la=1 lb=1:   1269 shell pairs
          la=2 lb=0:    713 shell pairs
          la=2 lb=1:    489 shell pairs
          la=2 lb=2:     52 shell pairs

Calculating one electron integrals          ... done (  0.0 sec)
Calculating RI/J V-Matrix + Cholesky decomp.... done (  0.0 sec)
Calculating Nuclear repulsion               ... done (  0.0 sec) ENN=    685.081603064782 Eh

SHARK setup successfully completed in   0.4 seconds

Maximum memory used throughout the entire GTOINT-calculation: 17.6 MB


           ************************************************************
           *        Program running with 24 parallel MPI-processes    *
           *              working on a common directory               *
           ************************************************************
-------------------------------------------------------------------------------
                                 ORCA SCF
-------------------------------------------------------------------------------

------------
SCF SETTINGS
------------
Hamiltonian:
 Density Functional     Method          .... DFT(GTOs)
 Exchange Functional    Exchange        .... WB97X
 Correlation Functional Correlation     .... WB97X
 Gradients option       PostSCFGGA      .... off
 Hybrid DFT is turned on
   Fraction HF Exchange ScalHFX         ....  0.157706
   Scaling of DF-GGA-X  ScalDFX         ....  0.000000
   Scaling of DF-GGA-C  ScalDFC         ....  1.000000
   Scaling of DF-LDA-C  ScalLDAC        ....  1.000000
   Perturbative correction              ....  0.000000
   Density functional embedding theory  .... OFF
 Long-range corrected/Screened/Range-Separated Hybrid DFT is turned on
   Amount of maximum screened exact exchange              ....  0.842294
   Range separation parameter mu (erf(mu*r12)/r12)        ....  0.300000
 RI-approximation to the Coulomb term is turned on
   Number of AuxJ basis functions       .... 656
   RIJ-COSX (HFX calculated with COS-X)).... on


General Settings:
 Integral files         IntName         .... structure_opt
 Hartree-Fock type      HFTyp           .... RHF
 Total Charge           Charge          ....   -1
 Multiplicity           Mult            ....    1
 Number of Electrons    NEL             ....   98
 Basis Dimension        Dim             ....  314
 Nuclear Repulsion      ENuc            ....    685.0816030648 Eh

Convergence Acceleration:
 DIIS                   CNVDIIS         .... on
   Start iteration      DIISMaxIt       ....    12
   Startup error        DIISStart       ....  0.200000
   # of expansion vecs  DIISMaxEq       ....     5
   Bias factor          DIISBfac        ....   1.050
   Max. coefficient     DIISMaxC        ....  10.000
 Trust-Rad. Augm. Hess. CNVTRAH         .... auto
   Auto Start mean grad. ratio tolernc. ....  1.125000
   Auto Start start iteration           ....    20
   Auto Start num. interpolation iter.  ....    10
   Max. Number of Micro iterations      ....    16
   Max. Number of Macro iterations      .... Maxiter - #DIIS iter
   Number of Davidson start vectors     ....     2
   Converg. threshold I  (grad. norm)   ....   1.000e-05
   Converg. threshold II (energy diff.) ....   1.000e-08
   Grad. Scal. Fac. for Micro threshold ....   0.100
   Minimum threshold for Micro iter.    ....   0.010
   NR start threshold (gradient norm)   ....   0.001
   Initial trust radius                 ....   0.400
   Minimum AH scaling param. (alpha)    ....   1.000
   Maximum AH scaling param. (alpha)    .... 1000.000
   Orbital update algorithm             .... Taylor
   White noise on init. David. guess    .... on
   Maximum white noise                  ....   0.010
   Quad. conv. algorithm                .... NR
 SOSCF                  CNVSOSCF        .... on
   Start iteration      SOSCFMaxIt      ....   150
   Startup grad/error   SOSCFStart      ....  0.003300
 Level Shifting         CNVShift        .... on
   Level shift para.    LevelShift      ....    0.2500
   Turn off err/grad.   ShiftErr        ....    0.0010
 Zerner damping         CNVZerner       .... off
 Static damping         CNVDamp         .... on
   Fraction old density DampFac         ....    0.7000
   Max. Damping (<1)    DampMax         ....    0.9800
   Min. Damping (>=0)   DampMin         ....    0.0000
   Turn off err/grad.   DampErr         ....    0.1000
 Fernandez-Rico         CNVRico         .... off

SCF Procedure:
 Maximum # iterations   MaxIter         ....   125
 SCF integral mode      SCFMode         .... Direct
   Integral package                     .... SHARK and LIBINT hybrid scheme
 Reset frequency        DirectResetFreq ....    20
 Integral Threshold     Thresh          ....  2.500e-11 Eh
 Primitive CutOff       TCut            ....  2.500e-12 Eh

Convergence Tolerance:
 Convergence Check Mode ConvCheckMode   .... Total+1el-Energy
 Convergence forced     ConvForced      .... 0
 Energy Change          TolE            ....  1.000e-08 Eh
 1-El. energy change                    ....  1.000e-05 Eh
 Orbital Gradient       TolG            ....  1.000e-05
 Orbital Rotation angle TolX            ....  1.000e-05
 DIIS Error             TolErr          ....  5.000e-07


Diagonalization of the overlap matrix:
Smallest eigenvalue                        ... 4.402e-06
Time for diagonalization                   ...    0.022 sec
Threshold for overlap eigenvalues          ... 1.000e-08
Number of eigenvalues below threshold      ... 0
Time for construction of square roots      ...    0.017 sec
Total time needed                          ...    0.041 sec

Time for model grid setup =    0.446 sec

------------------------------
INITIAL GUESS: MODEL POTENTIAL
------------------------------
Loading Hartree-Fock densities                     ... done
Calculating cut-offs                               ... done
Initializing the effective Hamiltonian             ... done
Setting up the integral package (SHARK)            ... done
Starting the Coulomb interaction                   ... done (   0.1 sec)
Reading the grid                                   ... done
Mapping shells                                     ... done
Starting the XC term evaluation                    ... done (   0.0 sec)
  promolecular density results
     # of electrons  =     96.996470547
     EX              =    -96.552679811
     EC              =     -3.327221165
     EX+EC           =    -99.879900976
Transforming the Hamiltonian                       ... done (   0.0 sec)
Diagonalizing the Hamiltonian                      ... done (   0.0 sec)
Back transforming the eigenvectors                 ... done (   0.0 sec)
Now organizing SCF variables                       ... done
                      ------------------
                      INITIAL GUESS DONE (   0.6 sec)
                      ------------------
-------------------
DFT GRID GENERATION
-------------------

General Integration Accuracy     IntAcc      ... 4.388
Radial Grid Type                 RadialGrid  ... OptM3 with GC (2021)
Angular Grid (max. ang.)         AngularGrid ... 4 (Lebedev-302)
Angular grid pruning method      GridPruning ... 4 (adaptive)
Weight generation scheme         WeightScheme... Becke
Basis function cutoff            BFCut       ... 1.0000e-11
Integration weight cutoff        WCut        ... 1.0000e-14
Angular grids for H and He will be reduced by one unit
Partially contracted basis set               ... off
Rotationally invariant grid construction     ... off

Total number of grid points                  ...    98146
Total number of batches                      ...     1542
Average number of points per batch           ...       63
Average number of grid points per atom       ...     5453
Time for grid setup =    0.691 sec

--------------------
COSX GRID GENERATION
--------------------

GRIDX 1
-------
General Integration Accuracy     IntAcc      ... 3.816
Radial Grid Type                 RadialGrid  ... OptM3 with GC (2021)
Angular Grid (max. ang.)         AngularGrid ... 1 (Lebedev-50)
Angular grid pruning method      GridPruning ... 4 (adaptive)
Weight generation scheme         WeightScheme... Becke
Basis function cutoff            BFCut       ... 1.0000e-11
Integration weight cutoff        WCut        ... 1.0000e-14
Angular grids for H and He will be reduced by one unit
Partially contracted basis set               ... on
Rotationally invariant grid construction     ... off

Total number of grid points                  ...    12262
Total number of batches                      ...      203
Average number of points per batch           ...       60
Average number of grid points per atom       ...      681
UseSFitting                                  ... on

GRIDX 2
-------
General Integration Accuracy     IntAcc      ... 4.020
Radial Grid Type                 RadialGrid  ... OptM3 with GC (2021)
Angular Grid (max. ang.)         AngularGrid ... 2 (Lebedev-110)
Angular grid pruning method      GridPruning ... 4 (adaptive)
Weight generation scheme         WeightScheme... Becke
Basis function cutoff            BFCut       ... 1.0000e-11
Integration weight cutoff        WCut        ... 1.0000e-14
Angular grids for H and He will be reduced by one unit
Partially contracted basis set               ... on
Rotationally invariant grid construction     ... off

Total number of grid points                  ...    31133
Total number of batches                      ...      494
Average number of points per batch           ...       63
Average number of grid points per atom       ...     1730
UseSFitting                                  ... on

GRIDX 3
-------
General Integration Accuracy     IntAcc      ... 4.338
Radial Grid Type                 RadialGrid  ... OptM3 with GC (2021)
Angular Grid (max. ang.)         AngularGrid ... 3 (Lebedev-194)
Angular grid pruning method      GridPruning ... 4 (adaptive)
Weight generation scheme         WeightScheme... Becke
Basis function cutoff            BFCut       ... 1.0000e-11
Integration weight cutoff        WCut        ... 1.0000e-14
Angular grids for H and He will be reduced by one unit
Partially contracted basis set               ... on
Rotationally invariant grid construction     ... off

Total number of grid points                  ...    69213
Total number of batches                      ...     1089
Average number of points per batch           ...       63
Average number of grid points per atom       ...     3845
UseSFitting                                  ... on

Time for X-Grid setup             =    1.289 sec


--------------------
CPCM SOLVATION MODEL
--------------------
CPCM parameters:
  Epsilon                                         ...      78.3550
  Refrac                                          ...       1.3328
  Rsolv                                           ...       1.3000
  Surface type                                    ... GAUSSIAN VDW
  Epsilon function type                           ...         CPCM
Solvent:                                     ... WATER
SMD-CDS solvent descriptors:
  Soln                                       ...    1.3328
  Soln25                                     ...    1.3323
  Sola                                       ...    0.0000
  Solb                                       ...    0.0000
  Solg                                       ...    0.0000
  Solc                                       ...    0.0000
  Solh                                       ...    0.0000
Radii:
 Radius for C  used is    3.4960 Bohr (=   1.8500 Ang.)
 Radius for N  used is    3.5716 Bohr (=   1.8900 Ang.)
 Radius for O  used is    2.8724 Bohr (=   1.5200 Ang.)
 Radius for F  used is    3.2692 Bohr (=   1.7300 Ang.)
 Radius for H  used is    2.2677 Bohr (=   1.2000 Ang.)
 Radius for S  used is    4.7054 Bohr (=   2.4900 Ang.)
Calculating surface                               ...        done! (  0.0s)
GEPOL surface points                              ...         1156
GEPOL Volume                                      ...    1367.2859
GEPOL Surface-area                                ...     849.5494
Calculating surface distance matrix               ...        done! (  0.0s)
Performing Cholesky decomposition & store         ...        done! (  0.1s)
Overall time for CPCM initialization              ...                 0.1s
--------------
SCF ITERATIONS
--------------
ITER       Energy         Delta-E        Max-DP      RMS-DP      [F,P]     Damp
               ***  Starting incremental Fock matrix formation  ***
  0   -989.8661636231   0.000000000000 0.31897248  0.00315554  0.2372637 0.7000
  1   -990.0283631956  -0.162199572500 0.28520445  0.00254692  0.1193387 0.7000
                               ***Turning on DIIS***
  2   -990.1008063185  -0.072443122877 1.67906147  0.00950351  0.0639951 0.0000
  3   -990.2248833616  -0.124077043150 0.75766093  0.00401469  0.0550107 0.0000
  4   -990.2440251310  -0.019141769376 0.24931016  0.00136130  0.0124481 0.0000
  5   -990.2452006126  -0.001175481645 0.12724701  0.00071473  0.0061695 0.0000
                      *** Initiating the SOSCF procedure ***
                           *** Shutting down DIIS ***
                      *** Re-Reading the Fockian *** 
                      *** Removing any level shift *** 
ITER      Energy       Delta-E        Grad      Rot      Max-DP    RMS-DP
  6   -990.24543273  -0.0002321161  0.001491  0.001491  0.033565  0.000226
               *** Restarting incremental Fock matrix formation ***
  7   -990.24550549  -0.0000727615  0.000975  0.002394  0.014230  0.000170
  8   -990.24554432  -0.0000388264  0.000379  0.002820  0.016358  0.000169
  9   -990.24555037  -0.0000060486  0.000679  0.000706  0.009561  0.000080
 10   -990.24555711  -0.0000067489  0.000109  0.000215  0.001381  0.000019
 11   -990.24555718  -0.0000000630  0.000092  0.000126  0.004490  0.000022
 12   -990.24555754  -0.0000003585  0.000014  0.000041  0.003351  0.000025
 13   -990.24555754  -0.0000000032  0.000006  0.000032  0.007811  0.000051
 14   -990.24555755  -0.0000000064  0.000005  0.000012  0.003365  0.000026
                  ***Gradient check signals convergence***
              ***Rediagonalizing the Fockian in SOSCF/NRSCF***

               *****************************************************
               *                     SUCCESS                       *
               *           SCF CONVERGED AFTER  15 CYCLES          *
               *****************************************************

Old exchange energy                            =    -28.432397962 Eh
New exchange energy                            =    -28.432395781 Eh
Exchange energy change after final integration =      0.000002181 Eh
Total energy after final integration           =   -990.245555366 Eh
Final COS-X integration done in                =     3.542 sec

SMD CDS free energy correction energy :                 5.87344     Kcal/mol
Total Energy after SMD CDS correction =              -990.236195449 Eh

----------------
TOTAL SCF ENERGY
----------------

Total Energy       :         -990.23619545 Eh          -26945.69677 eV

Components:
Nuclear Repulsion  :          685.08160306 Eh           18642.01816 eV
Electronic Energy  :        -1675.31779851 Eh          -45587.71493 eV
One Electron Energy:        -2730.30666861 Eh          -74295.42156 eV
Two Electron Energy:         1054.98887010 Eh           28707.70663 eV
Max COSX asymmetry :            0.00000243 Eh               0.00007 eV
CPCM Dielectric    :           -0.14809035 Eh              -4.02974 eV
SMD CDS (Gcds)     :            0.00935992 Eh               0.25470 eV

Virial components:
Potential Energy   :        -1977.46600849 Eh          -53809.58572 eV
Kinetic Energy     :          987.22981304 Eh           26863.88895 eV
Virial Ratio       :            2.00304527


DFT components:
N(Alpha)           :       49.000095599076 electrons
N(Beta)            :       49.000095599076 electrons
N(Total)           :       98.000191198152 electrons
E(XC)              :      -73.337987120027 Eh       
DFET-embed. en.    :        0.000000000000 Eh       
CPCM Solvation Model Properties:
Surface-charge          :            0.94848979
Charge-correction       :           -0.00571092 Eh              -0.15540 eV
Free-energy (cav+disp)  :            0.00935992 Eh               0.25470 eV

---------------
SCF CONVERGENCE
---------------

  Last Energy change         ...   -1.8177e-09  Tolerance :   1.0000e-08
  Last MAX-Density change    ...    3.5527e-15  Tolerance :   1.0000e-07
  Last RMS-Density change    ...    4.3733e-17  Tolerance :   5.0000e-09
  Last Orbital Gradient      ...    2.0037e-06  Tolerance :   1.0000e-05
  Last Orbital Rotation      ...    1.4647e-06  Tolerance :   1.0000e-05

             **** THE GBW FILE WAS UPDATED (structure_opt.gbw) ****
             **** DENSITY structure_opt.scfp WAS UPDATED ****
             **** ENERGY FILE WAS UPDATED (structure_opt.en.tmp) ****
             **** THE GBW FILE WAS UPDATED (structure_opt.gbw) ****
             **** DENSITY structure_opt.scfp WAS UPDATED ****
----------------
ORBITAL ENERGIES
----------------

  NO   OCC          E(Eh)            E(eV) 
   0   2.0000     -88.720243     -2414.2006 
   1   2.0000     -24.793376      -674.6621 
   2   2.0000     -19.275578      -524.5151 
   3   2.0000     -19.243940      -523.6542 
   4   2.0000     -14.669683      -399.1824 
   5   2.0000     -14.435654      -392.8141 
   6   2.0000     -10.437741      -284.0254 
   7   2.0000     -10.364200      -282.0242 
   8   2.0000     -10.338291      -281.3192 
   9   2.0000     -10.321214      -280.8545 
  10   2.0000     -10.290578      -280.0209 
  11   2.0000     -10.235932      -278.5339 
  12   2.0000      -7.916086      -215.4076 
  13   2.0000      -5.879299      -159.9838 
  14   2.0000      -5.871833      -159.7807 
  15   2.0000      -5.871802      -159.7798 
  16   2.0000      -1.396408       -37.9982 
  17   2.0000      -1.348089       -36.6834 
  18   2.0000      -1.151364       -31.3302 
  19   2.0000      -1.109352       -30.1870 
  20   2.0000      -1.008399       -27.4399 
  21   2.0000      -0.943466       -25.6730 
  22   2.0000      -0.874010       -23.7830 
  23   2.0000      -0.836194       -22.7540 
  24   2.0000      -0.796708       -21.6795 
  25   2.0000      -0.769208       -20.9312 
  26   2.0000      -0.705997       -19.2112 
  27   2.0000      -0.686522       -18.6812 
  28   2.0000      -0.669377       -18.2147 
  29   2.0000      -0.665191       -18.1008 
  30   2.0000      -0.661620       -18.0036 
  31   2.0000      -0.633198       -17.2302 
  32   2.0000      -0.620389       -16.8817 
  33   2.0000      -0.615306       -16.7433 
  34   2.0000      -0.563857       -15.3433 
  35   2.0000      -0.537164       -14.6170 
  36   2.0000      -0.528019       -14.3681 
  37   2.0000      -0.527990       -14.3673 
  38   2.0000      -0.494452       -13.4547 
  39   2.0000      -0.494233       -13.4488 
  40   2.0000      -0.456040       -12.4095 
  41   2.0000      -0.432345       -11.7647 
  42   2.0000      -0.421517       -11.4701 
  43   2.0000      -0.416477       -11.3329 
  44   2.0000      -0.408140       -11.1061 
  45   2.0000      -0.390693       -10.6313 
  46   2.0000      -0.384982       -10.4759 
  47   2.0000      -0.258942        -7.0462 
  48   2.0000      -0.258908        -7.0453 
  49   0.0000      -0.064805        -1.7634 
  50   0.0000       0.022615         0.6154 
  51   0.0000       0.053183         1.4472 
  52   0.0000       0.055446         1.5088 
  53   0.0000       0.058127         1.5817 
  54   0.0000       0.068369         1.8604 
  55   0.0000       0.075979         2.0675 
  56   0.0000       0.087680         2.3859 
  57   0.0000       0.090296         2.4571 
  58   0.0000       0.096165         2.6168 
  59   0.0000       0.098828         2.6892 
  60   0.0000       0.113391         3.0855 
  61   0.0000       0.116650         3.1742 
  62   0.0000       0.127700         3.4749 
  63   0.0000       0.129854         3.5335 
  64   0.0000       0.132102         3.5947 
  65   0.0000       0.140378         3.8199 
  66   0.0000       0.151333         4.1180 
  67   0.0000       0.153692         4.1822 
  68   0.0000       0.162346         4.4177 
  69   0.0000       0.166754         4.5376 
  70   0.0000       0.169419         4.6101 
  71   0.0000       0.174932         4.7601 
  72   0.0000       0.176493         4.8026 
  73   0.0000       0.180844         4.9210 
  74   0.0000       0.182213         4.9583 
  75   0.0000       0.183814         5.0018 
  76   0.0000       0.192153         5.2287 
  77   0.0000       0.194448         5.2912 
  78   0.0000       0.198401         5.3988 
  79   0.0000       0.202627         5.5138 
  80   0.0000       0.215147         5.8545 
  81   0.0000       0.217815         5.9270 
  82   0.0000       0.226941         6.1754 
  83   0.0000       0.232100         6.3158 
  84   0.0000       0.237485         6.4623 
  85   0.0000       0.240931         6.5561 
  86   0.0000       0.247632         6.7384 
  87   0.0000       0.261459         7.1147 
  88   0.0000       0.265526         7.2253 
  89   0.0000       0.268281         7.3003 
  90   0.0000       0.277827         7.5601 
  91   0.0000       0.279217         7.5979 
  92   0.0000       0.281394         7.6571 
  93   0.0000       0.283737         7.7209 
  94   0.0000       0.289667         7.8822 
  95   0.0000       0.299258         8.1432 
  96   0.0000       0.303038         8.2461 
  97   0.0000       0.310287         8.4433 
  98   0.0000       0.313469         8.5299 
  99   0.0000       0.326505         8.8847 
 100   0.0000       0.332671         9.0524 
 101   0.0000       0.339844         9.2476 
 102   0.0000       0.349948         9.5226 
 103   0.0000       0.350327         9.5329 
 104   0.0000       0.360355         9.8058 
 105   0.0000       0.370079        10.0704 
 106   0.0000       0.371754        10.1159 
 107   0.0000       0.380755        10.3609 
 108   0.0000       0.396389        10.7863 
 109   0.0000       0.404261        11.0005 
 110   0.0000       0.409334        11.1385 
 111   0.0000       0.416954        11.3459 
 112   0.0000       0.422141        11.4870 
 113   0.0000       0.433303        11.7908 
 114   0.0000       0.438339        11.9278 
 115   0.0000       0.452430        12.3112 
 116   0.0000       0.457797        12.4573 
 117   0.0000       0.464784        12.6474 
 118   0.0000       0.476592        12.9687 
 119   0.0000       0.478654        13.0248 
 120   0.0000       0.493926        13.4404 
 121   0.0000       0.503159        13.6916 
 122   0.0000       0.525861        14.3094 
 123   0.0000       0.529721        14.4144 
 124   0.0000       0.531473        14.4621 
 125   0.0000       0.562874        15.3166 
 126   0.0000       0.588029        16.0011 
 127   0.0000       0.613559        16.6958 
 128   0.0000       0.615533        16.7495 
 129   0.0000       0.620025        16.8717 
 130   0.0000       0.633838        17.2476 
 131   0.0000       0.638976        17.3874 
 132   0.0000       0.655971        17.8499 
 133   0.0000       0.660670        17.9777 
 134   0.0000       0.669229        18.2107 
 135   0.0000       0.701832        19.0978 
 136   0.0000       0.702457        19.1148 
 137   0.0000       0.725874        19.7520 
 138   0.0000       0.747342        20.3362 
 139   0.0000       0.770712        20.9721 
 140   0.0000       0.771214        20.9858 
 141   0.0000       0.783452        21.3188 
 142   0.0000       0.811104        22.0713 
 143   0.0000       0.828380        22.5414 
 144   0.0000       0.836475        22.7617 
 145   0.0000       0.850085        23.1320 
 146   0.0000       0.856855        23.3162 
 147   0.0000       0.870750        23.6943 
 148   0.0000       0.908772        24.7289 
 149   0.0000       0.910191        24.7676 
 150   0.0000       0.921857        25.0850 
 151   0.0000       0.934728        25.4352 
 152   0.0000       0.953825        25.9549 
 153   0.0000       0.956969        26.0405 
 154   0.0000       0.962880        26.2013 
 155   0.0000       0.972645        26.4670 
 156   0.0000       0.975856        26.5544 
 157   0.0000       0.985593        26.8194 
 158   0.0000       1.003880        27.3170 
 159   0.0000       1.004413        27.3315 
 160   0.0000       1.006903        27.3992 
 161   0.0000       1.035973        28.1902 
 162   0.0000       1.045054        28.4374 
 163   0.0000       1.063004        28.9258 
 164   0.0000       1.074718        29.2446 
 165   0.0000       1.080995        29.4154 
 166   0.0000       1.085242        29.5309 
 167   0.0000       1.146558        31.1994 
 168   0.0000       1.153235        31.3811 
 169   0.0000       1.160920        31.5902 
 170   0.0000       1.176241        32.0072 
 171   0.0000       1.189308        32.3627 
 172   0.0000       1.204607        32.7790 
 173   0.0000       1.212477        32.9932 
 174   0.0000       1.254352        34.1327 
 175   0.0000       1.266071        34.4515 
 176   0.0000       1.275465        34.7072 
 177   0.0000       1.278712        34.7955 
 178   0.0000       1.283587        34.9282 
 179   0.0000       1.297299        35.3013 
 180   0.0000       1.305592        35.5270 
 181   0.0000       1.360532        37.0220 
 182   0.0000       1.394113        37.9357 
 183   0.0000       1.406599        38.2755 
 184   0.0000       1.472284        40.0629 
 185   0.0000       1.507197        41.0129 
 186   0.0000       1.544116        42.0175 
 187   0.0000       1.586618        43.1741 
 188   0.0000       1.589733        43.2588 
 189   0.0000       1.592310        43.3290 
 190   0.0000       1.617655        44.0186 
 191   0.0000       1.631691        44.4006 
 192   0.0000       1.655435        45.0467 
 193   0.0000       1.656849        45.0851 
 194   0.0000       1.693295        46.0769 
 195   0.0000       1.695373        46.1334 
 196   0.0000       1.706922        46.4477 
 197   0.0000       1.715588        46.6835 
 198   0.0000       1.749295        47.6007 
 199   0.0000       1.765812        48.0502 
 200   0.0000       1.788050        48.6553 
 201   0.0000       1.808104        49.2010 
 202   0.0000       1.811229        49.2860 
 203   0.0000       1.818324        49.4791 
 204   0.0000       1.842918        50.1484 
 205   0.0000       1.850684        50.3597 
 206   0.0000       1.869799        50.8798 
 207   0.0000       1.913287        52.0632 
 208   0.0000       1.934209        52.6325 
 209   0.0000       1.948731        53.0277 
 210   0.0000       1.972091        53.6633 
 211   0.0000       1.974579        53.7310 
 212   0.0000       1.990841        54.1735 
 213   0.0000       2.010873        54.7186 
 214   0.0000       2.033006        55.3209 
 215   0.0000       2.046298        55.6826 
 216   0.0000       2.054314        55.9007 
 217   0.0000       2.111355        57.4529 
 218   0.0000       2.140671        58.2506 
 219   0.0000       2.147547        58.4377 
 220   0.0000       2.168591        59.0104 
 221   0.0000       2.173667        59.1485 
 222   0.0000       2.177058        59.2408 
 223   0.0000       2.205988        60.0280 
 224   0.0000       2.292982        62.3952 
 225   0.0000       2.324134        63.2429 
 226   0.0000       2.332749        63.4773 
 227   0.0000       2.333662        63.5022 
 228   0.0000       2.399276        65.2876 
 229   0.0000       2.429639        66.1138 
 230   0.0000       2.494700        67.8842 
 231   0.0000       2.563838        69.7656 
 232   0.0000       2.592417        70.5433 
 233   0.0000       2.597333        70.6770 
 234   0.0000       2.604337        70.8676 
 235   0.0000       2.627707        71.5035 
 236   0.0000       2.660001        72.3823 
 237   0.0000       2.661640        72.4269 
 238   0.0000       2.673823        72.7584 
 239   0.0000       2.674492        72.7766 
 240   0.0000       2.692246        73.2597 
 241   0.0000       2.771547        75.4176 
 242   0.0000       2.785127        75.7872 
 243   0.0000       2.828548        76.9687 
 244   0.0000       2.839845        77.2761 
 245   0.0000       2.858110        77.7731 
 246   0.0000       2.868046        78.0435 
 247   0.0000       2.883688        78.4691 
 248   0.0000       2.894907        78.7744 
 249   0.0000       2.901976        78.9668 
 250   0.0000       2.931790        79.7781 
 251   0.0000       2.937865        79.9434 
 252   0.0000       2.960792        80.5673 
 253   0.0000       2.978288        81.0433 
 254   0.0000       2.986576        81.2689 
 255   0.0000       3.001793        81.6829 
 256   0.0000       3.011140        81.9373 
 257   0.0000       3.098194        84.3061 
 258   0.0000       3.153071        85.7994 
 259   0.0000       3.188715        86.7694 
 260   0.0000       3.268845        88.9498 
 261   0.0000       3.307636        90.0053 
 262   0.0000       3.308299        90.0234 
 263   0.0000       3.341560        90.9285 
 264   0.0000       3.368764        91.6687 
 265   0.0000       3.454130        93.9917 
 266   0.0000       3.497068        95.1601 
 267   0.0000       3.559179        96.8502 
 268   0.0000       3.593550        97.7855 
 269   0.0000       3.681501       100.1787 
 270   0.0000       3.704373       100.8011 
 271   0.0000       3.753449       102.1366 
 272   0.0000       3.853460       104.8580 
 273   0.0000       3.889863       105.8486 
 274   0.0000       3.890977       105.8789 
 275   0.0000       3.892840       105.9296 
 276   0.0000       3.904962       106.2594 
 277   0.0000       3.924829       106.8000 
 278   0.0000       4.011078       109.1470 
 279   0.0000       4.059447       110.4632 
 280   0.0000       4.120195       112.1162 
 281   0.0000       4.143709       112.7560 
 282   0.0000       4.169084       113.4465 
 283   0.0000       4.405667       119.8843 
 284   0.0000       4.477674       121.8437 
 285   0.0000       4.506227       122.6207 
 286   0.0000       4.762958       129.6067 
 287   0.0000       4.942734       134.4986 
 288   0.0000       5.081104       138.2639 
 289   0.0000       5.119966       139.3214 
 290   0.0000       5.197988       141.4444 
 291   0.0000       5.227676       142.2523 
 292   0.0000       5.314624       144.6183 
 293   0.0000       5.701561       155.1474 
 294   0.0000       6.131571       166.8485 
 295   0.0000       6.408355       174.3802 
 296   0.0000       6.540065       177.9642 
 297   0.0000       6.841563       186.1684 
 298   0.0000       7.979856       217.1429 
 299   0.0000      17.547002       477.4782 
 300   0.0000      17.550396       477.5706 
 301   0.0000      17.640170       480.0134 
 302   0.0000      23.649869       643.5457 
 303   0.0000      23.890419       650.0914 
 304   0.0000      23.984676       652.6562 
 305   0.0000      24.031222       653.9228 
 306   0.0000      24.071098       655.0079 
 307   0.0000      24.181188       658.0036 
 308   0.0000      35.375693       962.6216 
 309   0.0000      35.657105       970.2792 
 310   0.0000      49.904156      1357.9611 
 311   0.0000      49.965720      1359.6364 
 312   0.0000      66.792177      1817.5075 
 313   0.0000     188.969154      5142.1121 

--------------------
FRAGMENT INFORMATION
--------------------
Fragment  1:    0   1   2   3   4   5 
Fragment  2:    6   7   8   9  10  11  12 
Fragment  3:   13  14  15  16 
Fragment  4:   17 


                    ********************************
                    * MULLIKEN POPULATION ANALYSIS *
                    ********************************

-------------------------
MULLIKEN FRAGMENT CHARGES
-------------------------
 Fragment   0 :  -0.440058
 Fragment   1 :   0.443291
 Fragment   2 :  -0.039921
 Fragment   3 :  -0.963312
Sum of fragment charges:   -1.0000000

---------------------------------
MULLIKEN FRAGMENT OVERLAP CHARGES
---------------------------------
                  0          1          2          3    
      0      19.962240   0.583192  -0.000229  -0.002117
      1       0.583192  34.979585   0.000746   0.007878
      2      -0.000229   0.000746  11.672551  -0.674389
      3      -0.002117   0.007878  -0.674389  17.297626

-----------------------
MULLIKEN ATOMIC CHARGES
-----------------------
   0 C :   -0.038589
   1 N :   -0.204515
   2 C :   -0.293804
   3 C :   -0.256628
   4 C :    0.438780
   5 C :   -0.085301
   6 N :   -0.115224
   7 O :   -0.019907
   8 O :   -0.218318
   9 F :   -0.105822
  10 H :    0.296259
  11 H :    0.281246
  12 H :    0.325057
  13 C :   -0.422322
  14 H :    0.127445
  15 H :    0.127125
  16 H :    0.127831
  17 S :   -0.963312
Sum of atomic charges:   -1.0000000

--------------------------------
MULLIKEN REDUCED ORBITAL CHARGES
--------------------------------
  0 C s       :     3.285410  s :     3.285410
      pz      :     0.676122  p :     2.592733
      px      :     0.973422
      py      :     0.943188
      dz2     :     0.052752  d :     0.160446
      dxz     :     0.048840
      dyz     :     0.028439
      dx2y2   :     0.013769
      dxy     :     0.016646
  1 N s       :     3.625621  s :     3.625621
      pz      :     1.142040  p :     3.548368
      px      :     1.241954
      py      :     1.164375
      dz2     :     0.008165  d :     0.030525
      dxz     :     0.007238
      dyz     :     0.004759
      dx2y2   :     0.005504
      dxy     :     0.004859
  2 C s       :     3.376888  s :     3.376888
      pz      :     0.811807  p :     2.832771
      px      :     1.166996
      py      :     0.853968
      dz2     :     0.023581  d :     0.084145
      dxz     :     0.032191
      dyz     :     0.014803
      dx2y2   :     0.007221
      dxy     :     0.006348
  3 C s       :     3.210130  s :     3.210130
      pz      :     1.157958  p :     2.993336
      px      :     0.868124
      py      :     0.967254
      dz2     :     0.015295  d :     0.053162
      dxz     :     0.017413
      dyz     :     0.005093
      dx2y2   :     0.008213
      dxy     :     0.007149
  4 C s       :     2.508178  s :     2.508178
      pz      :     0.905618  p :     2.995951
      px      :     1.239320
      py      :     0.851013
      dz2     :     0.016548  d :     0.057092
      dxz     :     0.015858
      dyz     :     0.010566
      dx2y2   :     0.007214
      dxy     :     0.006905
  5 C s       :     3.300358  s :     3.300358
      pz      :     1.109168  p :     2.711807
      px      :     0.485687
      py      :     1.116952
      dz2     :     0.013630  d :     0.073137
      dxz     :     0.029767
      dyz     :     0.010335
      dx2y2   :     0.011221
      dxy     :     0.008184
  6 N s       :     3.617337  s :     3.617337
      pz      :     1.063137  p :     3.388911
      px      :     1.223008
      py      :     1.102765
      dz2     :     0.027715  d :     0.108976
      dxz     :     0.039360
      dyz     :     0.023076
      dx2y2   :     0.008545
      dxy     :     0.010281
  7 O s       :     3.755902  s :     3.755902
      pz      :     1.023942  p :     4.245300
      px      :     1.824774
      py      :     1.396584
      dz2     :     0.009713  d :     0.018704
      dxz     :     0.003512
      dyz     :     0.005310
      dx2y2   :     0.000102
      dxy     :     0.000067
  8 O s       :     3.811014  s :     3.811014
      pz      :     1.620925  p :     4.395184
      px      :     1.217594
      py      :     1.556665
      dz2     :     0.001058  d :     0.012119
      dxz     :     0.004902
      dyz     :     0.000879
      dx2y2   :     0.003119
      dxy     :     0.002161
  9 F s       :     3.920151  s :     3.920151
      pz      :     1.389914  p :     5.180339
      px      :     1.916204
      py      :     1.874221
      dz2     :     0.003097  d :     0.005332
      dxz     :     0.000997
      dyz     :     0.001201
      dx2y2   :     0.000027
      dxy     :     0.000009
 10 H s       :     0.679843  s :     0.679843
      pz      :     0.005481  p :     0.023898
      px      :     0.014118
      py      :     0.004299
 11 H s       :     0.693792  s :     0.693792
      pz      :     0.016372  p :     0.024963
      px      :     0.003655
      py      :     0.004935
 12 H s       :     0.649421  s :     0.649421
      pz      :     0.007744  p :     0.025522
      px      :     0.013378
      py      :     0.004400
 13 C s       :     3.282184  s :     3.282184
      pz      :     1.060764  p :     3.087550
      px      :     0.999446
      py      :     1.027340
      dz2     :     0.009007  d :     0.052588
      dxz     :     0.012693
      dyz     :     0.007517
      dx2y2   :     0.012731
      dxy     :     0.010640
 14 H s       :     0.849857  s :     0.849857
      pz      :     0.012251  p :     0.022698
      px      :     0.005640
      py      :     0.004808
 15 H s       :     0.850145  s :     0.850145
      pz      :     0.005971  p :     0.022730
      px      :     0.005074
      py      :     0.011685
 16 H s       :     0.849435  s :     0.849435
      pz      :     0.007290  p :     0.022735
      px      :     0.009306
      py      :     0.006139
 17 S s       :     6.003136  s :     6.003136
      pz      :     3.995232  p :    10.928780
      px      :     3.302858
      py      :     3.630690
      dz2     :     0.005600  d :     0.031395
      dxz     :     0.003032
      dyz     :     0.001503
      dx2y2   :     0.005698
      dxy     :     0.015563


                     *******************************
                     * LOEWDIN POPULATION ANALYSIS *
                     *******************************

------------------------
LOEWDIN FRAGMENT CHARGES
------------------------
 Fragment   0 :   0.057173
 Fragment   1 :  -0.057662
 Fragment   2 :  -0.354573
 Fragment   3 :  -0.644938

----------------------------
LOEWDIN FRAGMENT BOND ORDERS
----------------------------
                  0          1          2          3    
      0      56.961651   6.778833   0.000135   0.000979
      1       6.778833  43.789233   0.001462   0.009116
      2       0.000135   0.001462  15.416992   1.744280
      3       0.000979   0.009116   1.744280  16.644938

----------------------
LOEWDIN ATOMIC CHARGES
----------------------
   0 C :    0.111425
   1 N :   -0.111971
   2 C :    0.077194
   3 C :   -0.033796
   4 C :    0.078168
   5 C :   -0.063847
   6 N :    0.240214
   7 O :   -0.152955
   8 O :   -0.338520
   9 F :   -0.078177
  10 H :    0.086982
  11 H :    0.084556
  12 H :    0.100239
  13 C :   -0.358096
  14 H :    0.001409
  15 H :    0.001040
  16 H :    0.001074
  17 S :   -0.644938

-------------------------------
LOEWDIN REDUCED ORBITAL CHARGES
-------------------------------
  0 C s       :     2.743715  s :     2.743715
      pz      :     0.849319  p :     2.815747
      px      :     1.080524
      py      :     0.885904
      dz2     :     0.112513  d :     0.329114
      dxz     :     0.100714
      dyz     :     0.050393
      dx2y2   :     0.033873
      dxy     :     0.031621
  1 N s       :     3.151588  s :     3.151588
      pz      :     1.301223  p :     3.903544
      px      :     1.416924
      py      :     1.185397
      dz2     :     0.017386  d :     0.056838
      dxz     :     0.015718
      dyz     :     0.007793
      dx2y2   :     0.009542
      dxy     :     0.006398
  2 C s       :     2.786866  s :     2.786866
      pz      :     1.032880  p :     2.954094
      px      :     1.096522
      py      :     0.824692
      dz2     :     0.060305  d :     0.181846
      dxz     :     0.069052
      dyz     :     0.027986
      dx2y2   :     0.014015
      dxy     :     0.010488
  3 C s       :     2.781223  s :     2.781223
      pz      :     1.081325  p :     3.128212
      px      :     1.092144
      py      :     0.954743
      dz2     :     0.034119  d :     0.124361
      dxz     :     0.045069
      dyz     :     0.008010
      dx2y2   :     0.022212
      dxy     :     0.014950
  4 C s       :     2.779220  s :     2.779220
      pz      :     1.065908  p :     3.014325
      px      :     1.108268
      py      :     0.840149
      dz2     :     0.040903  d :     0.128286
      dxz     :     0.039161
      dyz     :     0.021248
      dx2y2   :     0.015051
      dxy     :     0.011922
  5 C s       :     2.757974  s :     2.757974
      pz      :     1.088521  p :     3.125543
      px      :     0.957599
      py      :     1.079424
      dz2     :     0.039911  d :     0.180330
      dxz     :     0.071779
      dyz     :     0.019827
      dx2y2   :     0.031421
      dxy     :     0.017393
  6 N s       :     3.052235  s :     3.052235
      pz      :     1.206149  p :     3.501227
      px      :     1.215669
      py      :     1.079409
      dz2     :     0.060431  d :     0.206324
      dxz     :     0.076178
      dyz     :     0.035688
      dx2y2   :     0.017521
      dxy     :     0.016506
  7 O s       :     3.580548  s :     3.580548
      pz      :     1.283501  p :     4.540083
      px      :     1.838663
      py      :     1.417919
      dz2     :     0.020438  d :     0.032324
      dxz     :     0.005158
      dyz     :     0.006537
      dx2y2   :     0.000119
      dxy     :     0.000071
  8 O s       :     3.666799  s :     3.666799
      pz      :     1.710115  p :     4.651228
      px      :     1.369549
      py      :     1.571563
      dz2     :     0.001545  d :     0.020493
      dxz     :     0.009265
      dyz     :     0.001175
      dx2y2   :     0.005714
      dxy     :     0.002793
  9 F s       :     3.714971  s :     3.714971
      pz      :     1.535209  p :     5.355836
      px      :     1.934351
      py      :     1.886276
      dz2     :     0.004766  d :     0.007370
      dxz     :     0.001184
      dyz     :     0.001375
      dx2y2   :     0.000037
      dxy     :     0.000009
 10 H s       :     0.842619  s :     0.842619
      pz      :     0.016677  p :     0.070399
      px      :     0.042289
      py      :     0.011433
 11 H s       :     0.842994  s :     0.842994
      pz      :     0.047833  p :     0.072450
      px      :     0.011210
      py      :     0.013407
 12 H s       :     0.826528  s :     0.826528
      pz      :     0.023099  p :     0.073233
      px      :     0.038724
      py      :     0.011411
 13 C s       :     2.858327  s :     2.858327
      pz      :     1.118053  p :     3.392938
      px      :     1.143891
      py      :     1.130995
      dz2     :     0.018306  d :     0.106831
      dxz     :     0.024999
      dyz     :     0.014331
      dx2y2   :     0.025578
      dxy     :     0.023617
 14 H s       :     0.926843  s :     0.926843
      pz      :     0.039213  p :     0.071748
      px      :     0.018016
      py      :     0.014519
 15 H s       :     0.927123  s :     0.927123
      pz      :     0.017955  p :     0.071836
      px      :     0.015558
      py      :     0.038323
 16 H s       :     0.927071  s :     0.927071
      pz      :     0.022378  p :     0.071856
      px      :     0.030789
      py      :     0.018688
 17 S s       :     5.611638  s :     5.611638
      pz      :     3.935926  p :    10.996154
      px      :     3.404181
      py      :     3.656047
      dz2     :     0.006765  d :     0.037146
      dxz     :     0.003401
      dyz     :     0.001679
      dx2y2   :     0.006520
      dxy     :     0.018781


                      *****************************
                      * MAYER POPULATION ANALYSIS *
                      *****************************

  NA   - Mulliken gross atomic population
  ZA   - Total nuclear charge
  QA   - Mulliken gross atomic charge
  VA   - Mayer's total valence
  BVA  - Mayer's bonded valence
  FA   - Mayer's free valence

  ATOM       NA         ZA         QA         VA         BVA        FA
  0 C      6.0386     6.0000    -0.0386     4.3305     4.3305     0.0000
  1 N      7.2045     7.0000    -0.2045     2.7013     2.7013    -0.0000
  2 C      6.2938     6.0000    -0.2938     3.9718     3.9718     0.0000
  3 C      6.2566     6.0000    -0.2566     4.3351     4.3351    -0.0000
  4 C      5.5612     6.0000     0.4388     4.1136     4.1136    -0.0000
  5 C      6.0853     6.0000    -0.0853     3.3505     3.3505     0.0000
  6 N      7.1152     7.0000    -0.1152     3.9525     3.9525     0.0000
  7 O      8.0199     8.0000    -0.0199     2.1830     2.1830    -0.0000
  8 O      8.2183     8.0000    -0.2183     1.9962     1.9962     0.0000
  9 F      9.1058     9.0000    -0.1058     0.9656     0.9656     0.0000
 10 H      0.7037     1.0000     0.2963     0.8708     0.8708     0.0000
 11 H      0.7188     1.0000     0.2812     0.9032     0.9032    -0.0000
 12 H      0.6749     1.0000     0.3251     0.8386     0.8386    -0.0000
 13 C      6.4223     6.0000    -0.4223     3.5913     3.5913     0.0000
 14 H      0.8726     1.0000     0.1274     0.9431     0.9431     0.0000
 15 H      0.8729     1.0000     0.1271     0.9420     0.9420     0.0000
 16 H      0.8722     1.0000     0.1278     0.9403     0.9403     0.0000
 17 S     16.9633    16.0000    -0.9633     0.6140     0.6140     0.0000

  Mayer bond orders larger than 0.100000
B(  0-C ,  1-N ) :   1.2933 B(  0-C ,  2-C ) :   0.1837 B(  0-C ,  3-C ) :   0.1490 
B(  0-C ,  4-C ) :   0.3007 B(  0-C ,  5-C ) :   1.2048 B(  0-C ,  6-N ) :  -0.1917 
B(  0-C ,  9-F ) :   1.4060 B(  1-N ,  2-C ) :   1.1825 B(  1-N ,  5-C ) :   0.1801 
B(  2-C ,  3-C ) :   1.5882 B(  2-C , 10-H ) :   0.8839 B(  3-C ,  4-C ) :   1.4774 
B(  3-C ,  8-O ) :   0.1265 B(  3-C , 11-H ) :   0.8435 B(  4-C ,  5-C ) :   1.5774 
B(  4-C ,  6-N ) :  -0.1312 B(  4-C ,  8-O ) :   0.1499 B(  4-C ,  9-F ) :  -0.1223 
B(  4-C , 12-H ) :   0.7569 B(  5-C ,  6-N ) :   0.7495 B(  5-C ,  8-O ) :  -0.1620 
B(  5-C ,  9-F ) :  -0.3583 B(  5-C , 12-H ) :   0.1175 B(  6-N ,  7-O ) :   1.8611 
B(  6-N ,  8-O ) :   1.6745 B(  7-O ,  8-O ) :   0.2446 B( 13-C , 14-H ) :   0.9828 
[...]
 288   0.0000       5.091063       138.5349 
 289   0.0000       5.136114       139.7608 
 290   0.0000       5.206741       141.6826 
 291   0.0000       5.272727       143.4782 
 292   0.0000       5.364841       145.9847 
 293   0.0000       5.837635       158.8501 
 294   0.0000       6.284020       170.9969 
 295   0.0000       6.416354       174.5979 
 296   0.0000       6.550146       178.2385 
 297   0.0000       6.864344       186.7883 
 298   0.0000       7.979999       217.1468 
 299   0.0000      17.547059       477.4798 
 300   0.0000      17.550707       477.5790 
 301   0.0000      17.640458       480.0213 
 302   0.0000      23.711218       645.2150 
 303   0.0000      23.963313       652.0749 
 304   0.0000      24.026420       653.7921 
 305   0.0000      24.030606       653.9060 
 306   0.0000      24.183003       658.0530 
 307   0.0000      24.295220       661.1065 
 308   0.0000      35.415385       963.7016 
 309   0.0000      35.734718       972.3911 
 310   0.0000      49.914263      1358.2361 
 311   0.0000      50.011362      1360.8784 
 312   0.0000      66.806267      1817.8909 
 313   0.0000     188.969329      5142.1169 

--------------------
FRAGMENT INFORMATION
--------------------
Fragment  1:    0   1   2   3   4   5 
Fragment  2:    6   7   8   9  10  11  12 
Fragment  3:   13  14  15  16 
Fragment  4:   17 


                    ********************************
                    * MULLIKEN POPULATION ANALYSIS *
                    ********************************

-------------------------
MULLIKEN FRAGMENT CHARGES
-------------------------
 Fragment   0 :  -0.413041
 Fragment   1 :   0.415982
 Fragment   2 :  -0.041023
 Fragment   3 :  -0.961918
Sum of fragment charges:   -1.0000000

---------------------------------
MULLIKEN FRAGMENT OVERLAP CHARGES
---------------------------------
                  0          1          2          3    
      0      16.551413   0.477071   0.000002  -0.002641
      1       0.477071  35.107305   0.000776   0.007698
      2       0.000002   0.000776  11.671085  -0.669038
      3      -0.002641   0.007698  -0.669038  17.293908

-----------------------
MULLIKEN ATOMIC CHARGES
-----------------------
   0 C :    0.029899
   1 N :   -0.191542
   2 C :   -0.304682
   3 C :   -0.311300
   4 C :    0.402951
   5 C :   -0.038366
   6 N :   -0.099448
   7 O :   -0.095571
   8 O :   -0.132676
   9 F :   -0.122793
  10 H :    0.287719
  11 H :    0.284416
  12 H :    0.294334
  13 C :   -0.423591
  14 H :    0.127617
  15 H :    0.127176
  16 H :    0.127775
  17 S :   -0.961918
Sum of atomic charges:   -1.0000000

--------------------------------
MULLIKEN REDUCED ORBITAL CHARGES
--------------------------------
  0 C s       :     3.202959  s :     3.202959
      pz      :     0.674394  p :     2.596460
      px      :     0.978012
      py      :     0.944055
      dz2     :     0.057314  d :     0.170682
      dxz     :     0.050893
      dyz     :     0.029413
      dx2y2   :     0.014636
      dxy     :     0.018427
  1 N s       :     3.609993  s :     3.609993
      pz      :     1.148017  p :     3.546967
      px      :     1.247010
      py      :     1.151939
      dz2     :     0.008808  d :     0.034582
      dxz     :     0.008508
      dyz     :     0.005103
      dx2y2   :     0.006198
      dxy     :     0.005965
  2 C s       :     3.333499  s :     3.333499
      pz      :     0.825679  p :     2.882800
      px      :     1.183581
      py      :     0.873540
      dz2     :     0.025209  d :     0.088382
      dxz     :     0.032966
      dyz     :     0.015677
      dx2y2   :     0.007949
      dxy     :     0.006581
  3 C s       :     3.238794  s :     3.238794
      pz      :     1.154049  p :     3.016385
      px      :     0.891475
      py      :     0.970861
      dz2     :     0.016044  d :     0.056122
      dxz     :     0.018776
      dyz     :     0.005861
      dx2y2   :     0.008044
      dxy     :     0.007396
  4 C s       :     2.533245  s :     2.533245
      pz      :     0.924209  p :     3.001313
      px      :     1.226292
      py      :     0.850811
      dz2     :     0.019047  d :     0.062491
      dxz     :     0.015038
      dyz     :     0.012256
      dx2y2   :     0.008905
      dxy     :     0.007246
  5 C s       :     3.249979  s :     3.249979
      pz      :     1.097581  p :     2.712366
      px      :     0.496387
      py      :     1.118397
      dz2     :     0.013603  d :     0.076022
      dxz     :     0.032149
      dyz     :     0.010852
      dx2y2   :     0.011306
      dxy     :     0.008112
  6 N s       :     3.553457  s :     3.553457
      pz      :     1.072086  p :     3.417775
      px      :     1.235960
      py      :     1.109730
      dz2     :     0.033926  d :     0.128215
      dxz     :     0.042929
      dyz     :     0.026391
      dx2y2   :     0.011254
      dxy     :     0.013716
  7 O s       :     3.771143  s :     3.771143
      pz      :     1.024162  p :     4.306157
      px      :     1.835305
      py      :     1.446690
      dz2     :     0.009690  d :     0.018270
      dxz     :     0.003310
      dyz     :     0.005085
      dx2y2   :     0.000110
      dxy     :     0.000075
  8 O s       :     3.779498  s :     3.779498
      pz      :     1.601417  p :     4.335789
      px      :     1.266807
      py      :     1.467566
      dz2     :     0.001834  d :     0.017389
      dxz     :     0.006376
      dyz     :     0.001471
      dx2y2   :     0.004143
      dxy     :     0.003565
  9 F s       :     3.919902  s :     3.919902
      pz      :     1.400411  p :     5.197661
      px      :     1.918925
      py      :     1.878324
      dz2     :     0.003047  d :     0.005231
      dxz     :     0.000972
      dyz     :     0.001172
      dx2y2   :     0.000030
      dxy     :     0.000010
 10 H s       :     0.688968  s :     0.688968
      pz      :     0.004488  p :     0.023313
      px      :     0.014506
      py      :     0.004319
 11 H s       :     0.690284  s :     0.690284
      pz      :     0.016486  p :     0.025300
      px      :     0.003805
      py      :     0.005010
 12 H s       :     0.676736  s :     0.676736
      pz      :     0.007641  p :     0.028929
      px      :     0.015985
      py      :     0.005304
 13 C s       :     3.283507  s :     3.283507
      pz      :     1.060817  p :     3.087496
      px      :     0.998945
      py      :     1.027734
      dz2     :     0.008904  d :     0.052588
      dxz     :     0.012813
      dyz     :     0.007536
      dx2y2   :     0.012691
      dxy     :     0.010643
 14 H s       :     0.849680  s :     0.849680
      pz      :     0.012219  p :     0.022703
      px      :     0.005676
      py      :     0.004808
 15 H s       :     0.850108  s :     0.850108
      pz      :     0.005967  p :     0.022717
      px      :     0.005060
      py      :     0.011689
 16 H s       :     0.849506  s :     0.849506
      pz      :     0.007317  p :     0.022718
      px      :     0.009237
      py      :     0.006165
 17 S s       :     6.002238  s :     6.002238
      pz      :     3.995084  p :    10.928282
      px      :     3.297787
      py      :     3.635412
      dz2     :     0.005596  d :     0.031397
      dxz     :     0.003057
      dyz     :     0.001484
      dx2y2   :     0.005766
      dxy     :     0.015494


                     *******************************
                     * LOEWDIN POPULATION ANALYSIS *
                     *******************************

------------------------
LOEWDIN FRAGMENT CHARGES
------------------------
 Fragment   0 :   0.058863
 Fragment   1 :  -0.059679
 Fragment   2 :  -0.354511
 Fragment   3 :  -0.644672

----------------------------
LOEWDIN FRAGMENT BOND ORDERS
----------------------------
                  0          1          2          3    
      0      57.150895   6.741205   0.000145   0.001043
      1       6.741205  44.130040   0.001563   0.009399
      2       0.000145   0.001563  15.416526   1.744428
      3       0.001043   0.009399   1.744428  16.644672

----------------------
LOEWDIN ATOMIC CHARGES
----------------------
   0 C :    0.086054
   1 N :   -0.079367
   2 C :    0.060478
   3 C :   -0.026421
   4 C :    0.077745
   5 C :   -0.059627
   6 N :    0.217427
   7 O :   -0.199671
   8 O :   -0.239613
   9 F :   -0.087965
  10 H :    0.083770
  11 H :    0.086916
  12 H :    0.079456
  13 C :   -0.358172
  14 H :    0.001388
  15 H :    0.001127
  16 H :    0.001147
  17 S :   -0.644672

-------------------------------
LOEWDIN REDUCED ORBITAL CHARGES
-------------------------------
  0 C s       :     2.730731  s :     2.730731
      pz      :     0.851366  p :     2.831500
      px      :     1.095552
      py      :     0.884581
      dz2     :     0.122184  d :     0.351715
      dxz     :     0.104606
      dyz     :     0.052011
      dx2y2   :     0.037338
      dxy     :     0.035576
  1 N s       :     3.111015  s :     3.111015
      pz      :     1.299290  p :     3.903485
      px      :     1.431594
      py      :     1.172601
      dz2     :     0.019076  d :     0.064867
      dxz     :     0.018050
      dyz     :     0.008866
      dx2y2   :     0.010940
      dxy     :     0.007935
  2 C s       :     2.774798  s :     2.774798
      pz      :     1.039742  p :     2.972652
      px      :     1.092472
      py      :     0.840438
      dz2     :     0.064076  d :     0.192072
      dxz     :     0.071844
      dyz     :     0.030197
      dx2y2   :     0.015195
      dxy     :     0.010759
  3 C s       :     2.770487  s :     2.770487
      pz      :     1.079295  p :     3.126599
      px      :     1.090971
      py      :     0.956333
      dz2     :     0.035272  d :     0.129335
      dxz     :     0.047667
      dyz     :     0.008986
      dx2y2   :     0.021923
      dxy     :     0.015488
  4 C s       :     2.749889  s :     2.749889
      pz      :     1.090301  p :     3.030212
      px      :     1.102333
      py      :     0.837578
      dz2     :     0.046461  d :     0.142155
      dxz     :     0.040082
      dyz     :     0.024907
      dx2y2   :     0.017797
      dxy     :     0.012909
  5 C s       :     2.745079  s :     2.745079
      pz      :     1.098760  p :     3.126284
      px      :     0.951205
      py      :     1.076319
      dz2     :     0.040641  d :     0.188264
      dxz     :     0.077611
      dyz     :     0.021264
      dx2y2   :     0.031486
      dxy     :     0.017262
  6 N s       :     3.014419  s :     3.014419
      pz      :     1.213319  p :     3.521697
      px      :     1.225633
      py      :     1.082745
      dz2     :     0.072729  d :     0.246456
      dxz     :     0.086179
      dyz     :     0.041373
      dx2y2   :     0.024016
      dxy     :     0.022158
  7 O s       :     3.574833  s :     3.574833
      pz      :     1.280084  p :     4.593024
      px      :     1.847623
      py      :     1.465316
      dz2     :     0.020343  d :     0.031814
      dxz     :     0.004954
      dyz     :     0.006303
      dx2y2   :     0.000134
      dxy     :     0.000080
  8 O s       :     3.584317  s :     3.584317
      pz      :     1.709438  p :     4.624938
      px      :     1.429014
      py      :     1.486485
      dz2     :     0.002787  d :     0.030358
      dxz     :     0.012853
      dyz     :     0.002008
      dx2y2   :     0.008059
      dxy     :     0.004651
  9 F s       :     3.713796  s :     3.713796
      pz      :     1.539912  p :     5.366910
      px      :     1.937575
      py      :     1.889422
      dz2     :     0.004697  d :     0.007259
      dxz     :     0.001170
      dyz     :     0.001343
      dx2y2   :     0.000040
      dxy     :     0.000009
 10 H s       :     0.847506  s :     0.847506
      pz      :     0.014029  p :     0.068724
      px      :     0.043024
      py      :     0.011672
 11 H s       :     0.840755  s :     0.840755
      pz      :     0.047615  p :     0.072329
      px      :     0.011292
      py      :     0.013421
 12 H s       :     0.837634  s :     0.837634
      pz      :     0.022085  p :     0.082910
      px      :     0.046758
      py      :     0.014067
 13 C s       :     2.858524  s :     2.858524
      pz      :     1.118077  p :     3.392833
      px      :     1.144035
      py      :     1.130722
      dz2     :     0.018088  d :     0.106816
      dxz     :     0.025243
      dyz     :     0.014369
      dx2y2   :     0.025511
      dxy     :     0.023604
 14 H s       :     0.926837  s :     0.926837
      pz      :     0.039110  p :     0.071776
      px      :     0.018150
      py      :     0.014516
 15 H s       :     0.927098  s :     0.927098
      pz      :     0.017942  p :     0.071775
      px      :     0.015516
      py      :     0.038317
 16 H s       :     0.927073  s :     0.927073
      pz      :     0.022466  p :     0.071781
      px      :     0.030552
      py      :     0.018763
 17 S s       :     5.611514  s :     5.611514
      pz      :     3.935728  p :    10.996009
      px      :     3.400620
      py      :     3.659660
      dz2     :     0.006760  d :     0.037149
      dxz     :     0.003430
      dyz     :     0.001658
      dx2y2   :     0.006606
      dxy     :     0.018695


                      *****************************
                      * MAYER POPULATION ANALYSIS *
                      *****************************

  NA   - Mulliken gross atomic population
  ZA   - Total nuclear charge
  QA   - Mulliken gross atomic charge
  VA   - Mayer's total valence
  BVA  - Mayer's bonded valence
  FA   - Mayer's free valence

  ATOM       NA         ZA         QA         VA         BVA        FA
  0 C      5.9701     6.0000     0.0299     4.2486     4.2486    -0.0000
  1 N      7.1915     7.0000    -0.1915     2.7293     2.7293    -0.0000
  2 C      6.3047     6.0000    -0.3047     4.0584     4.0584    -0.0000
  3 C      6.3113     6.0000    -0.3113     4.4344     4.4344     0.0000
  4 C      5.5970     6.0000     0.4030     4.2354     4.2354     0.0000
  5 C      6.0384     6.0000    -0.0384     3.4088     3.4088     0.0000
  6 N      7.0994     7.0000    -0.0994     4.0543     4.0543     0.0000
  7 O      8.0956     8.0000    -0.0956     2.1150     2.1150     0.0000
  8 O      8.1327     8.0000    -0.1327     2.1389     2.1389     0.0000
  9 F      9.1228     9.0000    -0.1228     0.9292     0.9292    -0.0000
 10 H      0.7123     1.0000     0.2877     0.8706     0.8706    -0.0000
 11 H      0.7156     1.0000     0.2844     0.9027     0.9027     0.0000
 12 H      0.7057     1.0000     0.2943     0.8634     0.8634     0.0000
 13 C      6.4236     6.0000    -0.4236     3.5919     3.5919     0.0000
 14 H      0.8724     1.0000     0.1276     0.9431     0.9431    -0.0000
 15 H      0.8728     1.0000     0.1272     0.9419     0.9419    -0.0000
 16 H      0.8722     1.0000     0.1278     0.9402     0.9402    -0.0000
 17 S     16.9619    16.0000    -0.9619     0.6132     0.6132     0.0000

  Mayer bond orders larger than 0.100000
B(  0-C ,  1-N ) :   1.3163 B(  0-C ,  2-C ) :   0.1619 B(  0-C ,  3-C ) :   0.1874 
B(  0-C ,  4-C ) :   0.2983 B(  0-C ,  5-C ) :   1.1570 B(  0-C ,  6-N ) :  -0.1835 
B(  0-C ,  9-F ) :   1.3645 B(  1-N ,  2-C ) :   1.1483 B(  1-N ,  5-C ) :   0.2048 
B(  2-C ,  3-C ) :   1.6953 B(  2-C ,  5-C ) :   0.1203 B(  2-C , 10-H ) :   0.8824 
B(  3-C ,  4-C ) :   1.4073 B(  3-C ,  8-O ) :   0.1363 B(  3-C , 11-H ) :   0.8364 
B(  4-C ,  5-C ) :   1.7172 B(  4-C ,  8-O ) :   0.2210 B(  4-C ,  9-F ) :  -0.1500 
B(  4-C , 12-H ) :   0.7491 B(  5-C ,  6-N ) :   0.7058 B(  5-C ,  7-O ) :  -0.1065 
B(  5-C ,  8-O ) :  -0.2249 B(  5-C ,  9-F ) :  -0.3246 B(  5-C , 12-H ) :   0.1286 
B(  6-N ,  7-O ) :   1.8388 B(  6-N ,  8-O ) :   1.8296 B(  7-O ,  8-O ) :   0.2298 
B( 13-C , 14-H ) :   0.9828 B( 13-C , 15-H ) :   0.9827 B( 13-C , 16-H ) :   0.9850 
B( 13-C , 17-S ) :   0.6412 

-------
TIMINGS
-------

Total SCF time: 0 days 0 hours 0 min 20 sec 

Total time                  ....      20.189 sec
Sum of individual times     ....      19.103 sec  ( 94.6%)

Fock matrix formation       ....      16.511 sec  ( 81.8%)
  Split-RI-J                ....       1.024 sec  (  6.2% of F)
  Chain of spheres X        ....      11.995 sec  ( 72.6% of F)
  XC integration            ....       1.841 sec  ( 11.2% of F)
    Basis function eval.    ....       0.162 sec  (  8.8% of XC)
    Density eval.           ....       0.357 sec  ( 19.4% of XC)
    XC-Functional eval.     ....       0.057 sec  (  3.1% of XC)
    XC-Potential eval.      ....       0.130 sec  (  7.1% of XC)
Diagonalization             ....       0.026 sec  (  0.1%)
Density matrix formation    ....       0.012 sec  (  0.1%)
Population analysis         ....       0.048 sec  (  0.2%)
Initial guess               ....       0.040 sec  (  0.2%)
Orbital Transformation      ....       0.000 sec  (  0.0%)
Orbital Orthonormalization  ....       0.021 sec  (  0.1%)
DIIS solution               ....       0.011 sec  (  0.1%)
SOSCF solution              ....       0.158 sec  (  0.8%)
Grid generation             ....       2.297 sec  ( 11.4%)

Maximum memory used throughout the entire SCF-calculation: 68.5 MB

-------------------------   --------------------
FINAL SINGLE POINT ENERGY      -990.257433969872
-------------------------   --------------------

                                *** OPTIMIZATION RUN DONE ***

                            ***************************************
                            *     ORCA property calculations      *
                            ***************************************

                                    ---------------------
                                    Active property flags
                                    ---------------------
   (+) Dipole Moment


------------------------------------------------------------------------------
                       ORCA ELECTRIC PROPERTIES CALCULATION
------------------------------------------------------------------------------

Dipole Moment Calculation                       ... on
Quadrupole Moment Calculation                   ... off
Polarizability Calculation                      ... off
GBWName                                         ... structure_opt.gbw
Electron density                                ... structure_opt.scfp
The origin for moment calculation is the CENTER OF MASS  = (-4.158710,  2.315073  3.407940)

-------------
DIPOLE MOMENT
-------------
                                X             Y             Z
Electronic contribution:     17.48285     -14.50072       1.60551
Nuclear contribution   :    -10.03992       9.18360       4.57485
                        -----------------------------------------
Total Dipole Moment    :      7.44293      -5.31712       6.18037
                        -----------------------------------------
Magnitude (a.u.)       :     11.03929
Magnitude (Debye)      :     28.05965



--------------------
Rotational spectrum 
--------------------
 
Rotational constants in cm-1:     0.056684     0.007571     0.007114 
Rotational constants in MHz :  1699.348890   226.969046   213.264703 

 Dipole components along the rotational axes: 
x,y,z [a.u.] :   -10.728373     2.596041    -0.168982 
x,y,z [Debye]:   -27.269356     6.598611    -0.429519 

 

Timings for individual modules:

Sum of individual times         ...      887.616 sec (=  14.794 min)
GTO integral calculation        ...       45.778 sec (=   0.763 min)   5.2 %
SCF iterations                  ...      695.222 sec (=  11.587 min)  78.3 %
SCF Gradient evaluation         ...      145.213 sec (=   2.420 min)  16.4 %
Geometry relaxation             ...        1.403 sec (=   0.023 min)   0.2 %
                             ****ORCA TERMINATED NORMALLY****
TOTAL RUN TIME: 0 days 0 hours 15 minutes 43 seconds 419 msec
