
                                 *****************
                                 * O   R   C   A *
                                 *****************

                                            #,                                       
                                            ###                                      
                                            ####                                     
                                            #####                                    
                                            ######                                   
                                           ########,                                 
                                     ,,################,,,,,                         
                               ,,#################################,,                 
                          ,,##########################################,,             
                       ,#########################################, ''#####,          
                    ,#############################################,,   '####,        
                  ,##################################################,,,,####,       
                ,###########''''           ''''###############################       
              ,#####''   ,,,,##########,,,,          '''####'''          '####       
            ,##' ,,,,###########################,,,                        '##       
           ' ,,###''''                  '''############,,,                           
         ,,##''                                '''############,,,,        ,,,,,,###''
      ,#''                                            '''#######################'''  
     '                                                          ''''####''''         
             ,#######,   #######,   ,#######,      ##                                
            ,#'     '#,  ##    ##  ,#'     '#,    #''#        ######   ,####,        
            ##       ##  ##   ,#'  ##            #'  '#       #        #'  '#        
            ##       ##  #######   ##           ,######,      #####,   #    #        
            '#,     ,#'  ##    ##  '#,     ,#' ,#      #,         ##   #,  ,#        
             '#######'   ##     ##  '#######'  #'      '#     #####' # '####'        



                  #######################################################
                  #                        -***-                        #
                  #          Department of theory and spectroscopy      #
                  #    Directorship and core code : Frank Neese         #
                  #        Max Planck Institute fuer Kohlenforschung    #
                  #                Kaiser Wilhelm Platz 1               #
                  #                 D-45470 Muelheim/Ruhr               #
                  #                      Germany                        #
                  #                                                     #
                  #                  All rights reserved                #
                  #                        -***-                        #
                  #######################################################


                         Program Version 5.0.4 -  RELEASE  -


 With contributions from (in alphabetic order):
   Daniel Aravena         : Magnetic Suceptibility
   Michael Atanasov       : Ab Initio Ligand Field Theory (pilot matlab implementation)
   Alexander A. Auer      : GIAO ZORA, VPT2 properties, NMR spectrum
   Ute Becker             : Parallelization
   Giovanni Bistoni       : ED, misc. LED, open-shell LED, HFLD
   Martin Brehm           : Molecular dynamics
   Dmytro Bykov           : SCF Hessian
   Vijay G. Chilkuri      : MRCI spin determinant printing, contributions to CSF-ICE
   Dipayan Datta          : RHF DLPNO-CCSD density
   Achintya Kumar Dutta   : EOM-CC, STEOM-CC
   Dmitry Ganyushin       : Spin-Orbit,Spin-Spin,Magnetic field MRCI
   Miquel Garcia          : C-PCM and meta-GGA Hessian, CC/C-PCM, Gaussian charge scheme
   Yang Guo               : DLPNO-NEVPT2, F12-NEVPT2, CIM, IAO-localization
   Andreas Hansen         : Spin unrestricted coupled pair/coupled cluster methods
   Benjamin Helmich-Paris : MC-RPA, TRAH-SCF, COSX integrals
   Lee Huntington         : MR-EOM, pCC
   Robert Izsak           : Overlap fitted RIJCOSX, COSX-SCS-MP3, EOM
   Marcus Kettner         : VPT2
   Christian Kollmar      : KDIIS, OOCD, Brueckner-CCSD(T), CCSD density, CASPT2, CASPT2-K
   Simone Kossmann        : Meta GGA functionals, TD-DFT gradient, OOMP2, MP2 Hessian
   Martin Krupicka        : Initial AUTO-CI
   Lucas Lang             : DCDCAS
   Marvin Lechner         : AUTO-CI (C++ implementation), FIC-MRCC
   Dagmar Lenk            : GEPOL surface, SMD
   Dimitrios Liakos       : Extrapolation schemes; Compound Job, initial MDCI parallelization
   Dimitrios Manganas     : Further ROCIS development; embedding schemes
   Dimitrios Pantazis     : SARC Basis sets
   Anastasios Papadopoulos: AUTO-CI, single reference methods and gradients
   Taras Petrenko         : DFT Hessian,TD-DFT gradient, ASA, ECA, R-Raman, ABS, FL, XAS/XES, NRVS
   Peter Pinski           : DLPNO-MP2, DLPNO-MP2 Gradient
   Christoph Reimann      : Effective Core Potentials
   Marius Retegan         : Local ZFS, SOC
   Christoph Riplinger    : Optimizer, TS searches, QM/MM, DLPNO-CCSD(T), (RO)-DLPNO pert. Triples
   Tobias Risthaus        : Range-separated hybrids, TD-DFT gradient, RPA, STAB
   Michael Roemelt        : Original ROCIS implementation
   Masaaki Saitow         : Open-shell DLPNO-CCSD energy and density
   Barbara Sandhoefer     : DKH picture change effects
   Avijit Sen             : IP-ROCIS
   Kantharuban Sivalingam : CASSCF convergence, NEVPT2, FIC-MRCI
   Bernardo de Souza      : ESD, SOC TD-DFT
   Georgi Stoychev        : AutoAux, RI-MP2 NMR, DLPNO-MP2 response
   Willem Van den Heuvel  : Paramagnetic NMR
   Boris Wezisla          : Elementary symmetry handling
   Frank Wennmohs         : Technical directorship


 We gratefully acknowledge several colleagues who have allowed us to
 interface, adapt or use parts of their codes:
   Stefan Grimme, W. Hujo, H. Kruse, P. Pracht,  : VdW corrections, initial TS optimization,
                  C. Bannwarth, S. Ehlert          DFT functionals, gCP, sTDA/sTD-DF
   Ed Valeev, F. Pavosevic, A. Kumar             : LibInt (2-el integral package), F12 methods
   Garnet Chan, S. Sharma, J. Yang, R. Olivares  : DMRG
   Ulf Ekstrom                                   : XCFun DFT Library
   Mihaly Kallay                                 : mrcc  (arbitrary order and MRCC methods)
   Jiri Pittner, Ondrej Demel                    : Mk-CCSD
   Frank Weinhold                                : gennbo (NPA and NBO analysis)
   Christopher J. Cramer and Donald G. Truhlar   : smd solvation model
   Lars Goerigk                                  : TD-DFT with DH, B97 family of functionals
   V. Asgeirsson, H. Jonsson                     : NEB implementation
   FAccTs GmbH                                   : IRC, NEB, NEB-TS, DLPNO-Multilevel, CI-OPT
                                                   MM, QMMM, 2- and 3-layer-ONIOM, Crystal-QMMM,
                                                   LR-CPCM, SF, NACMEs, symmetry and pop. for TD-DFT,
                                                   nearIR, NL-DFT gradient (VV10), updates on ESD,
                                                   ML-optimized integration grids
   S Lehtola, MJT Oliveira, MAL Marques          : LibXC Library
   Liviu Ungur et al                             : ANISO software


 Your calculation uses the libint2 library for the computation of 2-el integrals
 For citations please refer to: http://libint.valeyev.net

 Your ORCA version has been built with support for libXC version: 5.1.0
 For citations please refer to: https://tddft.org/programs/libxc/

 This ORCA versions uses:
   CBLAS   interface :  Fast vector & matrix operations
   LAPACKE interface :  Fast linear algebra routines
   SCALAPACK package :  Parallel linear algebra routines
   Shared memory     :  Shared parallel matrices
   BLAS/LAPACK       :  OpenBLAS 0.3.15  USE64BITINT DYNAMIC_ARCH NO_AFFINITY SkylakeX SINGLE_THREADED
        Core in use  :  SkylakeX
   Copyright (c) 2011-2014, The OpenBLAS Project




***************************************
The coordinates will be read from file: reactants.xyz
***************************************


Your calculation utilizes the SMD solvation module
Please cite in your paper:
A.V. Marenich, C.J. Cramer, D.G. Truhlar J. Phys. Chem. B, 113, (2009), 6378 

XCFun DFT library Copyright 2009-2010 Ulf Ekstrom and contributors.
See http://admol.org/xcfun for more information.
This is free software; see the source code for copying conditions.
There is ABSOLUTELY NO WARRANTY; not even for MERCHANTABILITY or FITNESS FOR A PARTICULAR PURPOSE.
For details see the documentation.
Scientific users of this library should cite U. Ekstrom, L. Visscher, R. Bast, A. J. Thorvaldsen and K. Ruud;
J.Chem.Theor.Comp. 2010, DOI: 10.1021/ct100117s
XCFun Version 0.99 

================================================================================

----- Orbital basis set information -----
Your calculation utilizes the basis: 6-311++G**
   H, Li - Ne  : R. Krishnan, J. S. Binkley, R. Seeger and J. A. Pople, J. Chem. Phys. 72, 650 (1980).
   Na - Ar     : A. D. McLean and G. S. Chandler J. Chem. Phys. 72, 5639, (1980).
   K  - Ca     : J.-P. Blaudeau, M. P. McGrath, L. A. Curtiss and L. Radom, J. Chem. Phys. 107, 5016 (1997).
   Ga - Kr     : L. A. Curtiss, M. P. McGrath, J.-P. Blandeau, N. E. Davis, R. C. Binning and L. Radom, J. Chem. Phys. 103, 6104 (1995).
   Pol./Diff.
   H, Li - Cl  : T. Clark, J. Chandrasekhar and P. v. R. Schleyer, J. Comp. Chem. 4, 294 (1983).
   H - Ne      : M. J. Frisch, J. A. Pople and J. S. Binkley, J. Chem. Phys. 80, 3265 (1984).

----- AuxJ basis set information -----
Your calculation utilizes the auxiliary basis: def2/J
   F. Weigend, Phys. Chem. Chem. Phys. 8, 1057 (2006).

================================================================================
                                        WARNINGS
                       Please study these warnings very carefully!
================================================================================


WARNING: Geometry Optimization
  ===> : Switching off AutoStart
         For restart on a previous wavefunction, please use MOREAD

INFO   : the flag for use of the SHARK integral package has been found!

================================================================================
                                       INPUT FILE
================================================================================
NAME = structure_opt.inp
|  1> !wb97x 6-311++G** OPT CPCM(WATER)
|  2> %maxcore  3500
|  3> %pal
|  4> nprocs 24
|  5> end
|  6> %cpcm
|  7> smd true
|  8> SMDsolvent "water"
|  9> end
| 10> %geom
| 11> ConstrainFragments {1} end
| 12> ConstrainFragments {4} end
| 13> ConnectFragments
| 14> { 1 2 C 5 7 }
| 15> { 1 2 C 0 9 }
| 16> { 2 3 C 13 5 }
| 17> { 3 4 C 13 17 }
| 18> end
| 19> end
| 20> * XYZfile -1 1 reactants.xyz
| 21> %geom
| 22> Fragments
| 23> 1 {0:5} end
| 24> 2 {6:12} end
| 25> 3 {13:16} end
| 26> 4 {17} end
| 27> end
| 28> end
| 29> 
| 30>                          ****END OF INPUT****
================================================================================

                       *****************************
                       * Geometry Optimization Run *
                       *****************************

Geometry optimization settings:
Update method            Update   .... BFGS
Choice of coordinates    CoordSys .... Z-matrix Internals
Initial Hessian          InHess   .... Almoef's Model

Convergence Tolerances:
Energy Change            TolE     ....  5.0000e-06 Eh
Max. Gradient            TolMAXG  ....  3.0000e-04 Eh/bohr
RMS Gradient             TolRMSG  ....  1.0000e-04 Eh/bohr
Max. Displacement        TolMAXD  ....  4.0000e-03 bohr
RMS Displacement         TolRMSD  ....  2.0000e-03 bohr
Strict Convergence                ....  False
------------------------------------------------------------------------------
                        ORCA OPTIMIZATION COORDINATE SETUP
------------------------------------------------------------------------------

The optimization will be done in new redundant internal coordinates
Making redundant internal coordinates   ...  (new redundants) done
Evaluating the initial hessian          ...  (Almloef) done
Evaluating the coordinates              ...  done
Calculating the B-matrix                .... done
Calculating the G-matrix                .... done
Diagonalizing the G-matrix              .... done
Imposing constraints:
 Iter   0:  RMS(Cart)=    0.0000000000 RMS(Int)=    0.0000000000
CONVERGED
Small eigenvalue found = 1.132e-02
Small eigenvalue found = 2.530e-02
Small eigenvalue found = 2.853e-02
The first mode is                       ....   68
The number of degrees of freedom        ....   48
Storing new coordinates                 .... done

    -----------------------------------------------------------------
                    Redundant Internal Coordinates


    -----------------------------------------------------------------
         Definition                    Initial Value    Approx d2E/dq
    -----------------------------------------------------------------
      1. B(N   1,C   0)                  1.3611         0.622347   
      2. B(C   2,N   1)                  1.3582         0.628875   
      3. B(C   3,C   2)                  1.3949         0.613658   
      4. B(C   4,C   3)                  1.3934         0.616971   
      5. B(C   5,C   0)                  1.4122         0.575774   
      6. B(C   5,C   4)                  1.4061         0.588917   
      7. B(O   7,C   5)                  2.3435         0.016853 C 
      8. B(O   7,N   6)                  1.2480         0.844503   
      9. B(O   8,N   6)                  1.3769         0.525866   
     10. B(F   9,C   0)                  1.3500         0.602260 C 
     11. B(F   9,N   6)                  2.8678         0.002044   
     12. B(F   9,O   7)                  2.5821         0.005837   
     13. B(H  11,H  10)                  2.4818         0.000415   
     14. B(H  12,O   8)                  2.5152         0.001717   
     15. B(H  12,H  11)                  2.4663         0.000439   
     16. B(H  12,N   6)                  2.7029         0.000861   
     17. B(C  13,F   9)                  8.8153         0.000000 C 
     18. B(H  14,C  13)                  1.0938         0.355062   
     19. B(H  15,C  13)                  1.0934         0.355665   
     20. B(H  16,C  13)                  1.0934         0.355672   
     21. B(S  17,C  13)                  1.8032         0.369230 C 
     22. A(N   1,C   0,F   9)          118.6704         0.424592 C 
     23. A(C   5,C   0,F   9)          121.1725         0.421471 C 
     24. A(N   1,C   0,C   5)          120.1571         0.425830   
     25. A(C   0,N   1,C   2)          121.9524         0.429796   
     26. A(N   1,C   2,C   3)          120.0262         0.431531   
     27. A(C   2,C   3,C   4)          119.3498         0.432882   
     28. A(C   3,C   4,C   5)          120.4718         0.429694   
     29. A(C   0,C   5,C   4)          118.0425         0.424407   
     30. A(C   0,C   5,O   7)           94.5313         0.237820 C 
     31. A(C   4,C   5,O   7)          147.4261         0.238582 C 
     32. A(F   9,N   6,H  12)          110.0144         0.106848   
     33. A(O   7,N   6,F   9)           64.2090         0.186619   
     34. A(O   7,N   6,H  12)          174.2234         0.159181   
     35. A(O   8,N   6,H  12)           67.2752         0.152046   
     36. A(O   7,N   6,O   8)          118.5014         0.433822   
     37. A(N   6,O   7,F   9)           89.9947         0.212791   
     38. A(C   5,O   7,N   6)           31.7456         0.248611 C 
     39. A(C   5,O   7,F   9)           58.2491         0.140475 C 
     40. A(N   6,O   8,H  12)           82.3972         0.162696   
     41. A(C   0,F   9,C  13)           93.0563         0.089667   
     42. A(N   6,F   9,O   7)           25.7962         0.120482   
     43. A(O   7,F   9,C  13)           81.6983         0.089232 C 
     44. A(C   0,F   9,O   7)           86.0471         0.203997 C 
     45. A(C   0,F   9,N   6)           60.2509         0.179684 C 
     46. A(N   6,F   9,C  13)           84.1257         0.089183 C 
     47. A(H  10,H  11,H  12)          119.7063         0.095112   
     48. A(N   6,H  12,O   8)           30.3275         0.103999   
     49. A(N   6,H  12,H  11)          126.7169         0.097913   
     50. A(O   8,H  12,H  11)          157.0445         0.099419   
     51. A(H  14,C  13,H  16)          108.9266         0.289634   
     52. A(H  15,C  13,H  16)          108.9881         0.289711   
     53. A(F   9,C  13,H  14)          112.7862         0.089519 C 
     54. A(H  16,C  13,S  17)          109.9057         0.339471 C 
     55. A(F   9,C  13,H  15)          109.5509         0.089520 C 
     56. A(F   9,C  13,H  16)          107.4573         0.089520 C 
     57. A(H  14,C  13,S  17)          109.9779         0.339373 C 
     58. A(H  15,C  13,S  17)          109.9578         0.339469 C 
     59. A(H  14,C  13,H  15)          109.0587         0.289633   
     60. D(C   2,N   1,C   0,C   5)     -0.1041         0.028432   
     61. D(C   2,N   1,C   0,F   9)    179.9112         0.028432 C 
     62. D(C   3,C   2,N   1,C   0)      0.1066         0.025783   
     63. D(C   4,C   3,C   2,N   1)     -0.0956         0.020965   
     64. D(C   5,C   4,C   3,C   2)      0.0854         0.021202   
     65. D(C   4,C   5,C   0,N   1)      0.0896         0.022761   
     66. D(C   4,C   5,C   0,F   9)   -179.9260         0.022761 C 
     67. D(O   7,C   5,C   0,N   1)    179.9933         0.022761 C 
     68. D(O   7,C   5,C   0,F   9)     -0.0223         0.022761 C 
     69. D(C   0,C   5,C   4,C   3)     -0.0818         0.021656   
     70. D(O   7,C   5,C   4,C   3)   -179.9036         0.021656 C 
     71. D(N   6,O   7,C   5,C   0)   -179.9521         0.001517 C 
     72. D(N   6,O   7,C   5,C   4)     -0.1099         0.001517 C 
     73. D(F   9,O   7,C   5,C   0)      0.0117         0.001517 C 
     74. D(F   9,O   7,N   6,O   8)    179.9932         0.079747   
     75. D(C   5,O   7,N   6,F   9)      0.0308         0.079747 C 
     76. D(F   9,O   7,N   6,H  12)      0.1568         0.079747   
     77. D(C   5,O   7,N   6,O   8)   -179.9761         0.079747 C 
     78. D(C   5,O   7,N   6,H  12)      0.1876         0.079747 C 
     79. D(F   9,O   7,C   5,C   4)    179.8539         0.001517 C 
     80. D(H  12,O   8,N   6,O   7)   -179.9821         0.025649   
     81. D(C  13,F   9,N   6,O   7)    -83.0691         0.001500 C 
     82. D(N   6,F   9,C   0,C   5)      0.0236         0.035386 C 
     83. D(O   7,F   9,C   0,N   1)   -179.9952         0.035386 C 
     84. D(O   7,F   9,C   0,C   5)      0.0202         0.035386 C 
     85. D(C  13,F   9,C   0,N   1)     98.5520         0.035386   
     86. D(C  13,F   9,C   0,C   5)    -81.4326         0.035386   
     87. D(O   7,F   9,N   6,H  12)   -179.9832         0.001500   
     88. D(C   0,F   9,N   6,O   7)   -179.9922         0.001500 C 
     89. D(N   6,F   9,C   0,N   1)   -179.9918         0.035386 C 
     90. D(C   0,F   9,N   6,H  12)      0.0246         0.001500 C 
     91. D(C  13,F   9,N   6,H  12)     96.9477         0.001500 C 
     92. D(C   0,F   9,O   8,H  12)      0.0232         0.001500 C 
     93. D(C   0,F   9,O   7,N   6)      0.0068         0.001503 C 
     94. D(C   0,F   9,O   7,C   5)     -0.0123         0.001503 C 
     95. D(C  13,F   9,O   7,N   6)     93.6815         0.001503 C 
     96. D(C  13,F   9,O   7,C   5)     93.6625         0.001503   
     97. D(N   6,F   9,O   7,C   5)     -0.0190         0.001503 C 
     98. D(O   7,F   9,O   8,H  12)   -179.9897         0.001500   
     99. D(C  13,F   9,O   8,H  12)     97.0340         0.001500 C 
    100. D(O   8,H  12,N   6,O   7)    179.8441         0.001501   
    101. D(N   6,H  12,H  11,H  10)      0.0466         0.001502   
    102. D(H  11,H  12,N   6,O   7)     -0.1748         0.001501   
    103. D(H  11,H  12,N   6,O   8)    179.9811         0.001501   
    104. D(H  11,H  12,N   6,F   9)     -0.0245         0.001501   
    105. D(O   8,H  12,N   6,F   9)    179.9943         0.001501   
    106. D(H  11,H  12,O   8,N   6)     -0.0388         0.001502   
    107. D(O   8,H  12,H  11,H  10)      0.0710         0.001502   
    108. D(H  14,C  13,F   9,N   6)    143.7039         0.001500 C 
    109. D(H  14,C  13,F   9,O   7)    117.8189         0.001500 C 
    110. D(H  14,C  13,F   9,C   0)   -156.6292         0.001500   
    111. D(H  15,C  13,F   9,N   6)     22.0340         0.001500 C 
    112. D(H  15,C  13,F   9,O   7)     -3.8510         0.001500 C 
    113. D(H  15,C  13,F   9,C   0)     81.7009         0.001500   
    114. D(H  16,C  13,F   9,N   6)    -96.2361         0.001500 C 
    115. D(H  16,C  13,F   9,O   7)   -122.1211         0.001500 C 
    116. D(H  16,C  13,F   9,C   0)    -36.5692         0.001500   
    -----------------------------------------------------------------

Number of atoms                         .... 18
Number of degrees of freedom            .... 116

         *************************************************************
         *                GEOMETRY OPTIMIZATION CYCLE   1            *
         *************************************************************
---------------------------------
CARTESIAN COORDINATES (ANGSTROEM)
---------------------------------
  C      0.000000    0.000000    1.820000
  N      1.178000   -0.196000    2.473000
  C      1.255000   -0.207000    3.829000
  C      0.105000   -0.016000    4.595000
  C     -1.116000    0.187000    3.955000
  C     -1.192000    0.198000    2.551000
  N     -2.456000    0.409000    1.893000
  O     -2.541000    0.423000    0.648000
  O     -3.602000    0.600000    2.632000
  F      0.000000    0.000000    0.470000
  H      2.209000   -0.366000    4.313000
  H      0.163000   -0.026000    5.676000
  H     -2.005000    0.335000    4.557000
  C     -2.720000   -8.372000    0.000000
  H     -2.455000   -8.851000   -0.947000
  H     -3.805000   -8.412000    0.129000
  H     -2.244000   -8.918000    0.819000
  S     -2.163000   -6.657000    0.000000

----------------------------
CARTESIAN COORDINATES (A.U.)
----------------------------
  NO LB      ZA    FRAG     MASS         X           Y           Z
   0 C     6.0000    1    12.011    0.000000    0.000000    3.439302
   1 N     7.0000    1    14.007    2.226097   -0.370386    4.673293
   2 C     6.0000    1    12.011    2.371606   -0.391173    7.235761
   3 C     6.0000    1    12.011    0.198421   -0.030236    8.683292
   4 C     6.0000    1    12.011   -2.108934    0.353379    7.473867
   5 C     6.0000    1    12.011   -2.252554    0.374166    4.820691
   6 N     7.0000    2    14.007   -4.641167    0.772898    3.577252
   7 O     8.0000    2    15.999   -4.801794    0.799354    1.224543
   8 O     8.0000    2    15.999   -6.806794    1.133836    4.973759
   9 F     9.0000    2    18.998    0.000000    0.000000    0.888171
  10 H     1.0000    2     1.008    4.174405   -0.691640    8.150389
  11 H     1.0000    2     1.008    0.308025   -0.049133   10.726086
  12 H     1.0000    2     1.008   -3.788901    0.633058    8.611482
  13 C     6.0000    3    12.011   -5.140055  -15.820787    0.000000
  14 H     1.0000    3     1.008   -4.639278  -16.725966   -1.789571
  15 H     1.0000    3     1.008   -7.190408  -15.896376    0.243775
  16 H     1.0000    3     1.008   -4.240545  -16.852578    1.547686
  17 S    16.0000    4    32.060   -4.087478  -12.579907    0.000000

----------------------------------------------
CARTESIAN COORDINATES OF FRAGMENTS (ANGSTROEM)
----------------------------------------------

 FRAGMENT 1 
  C     0.000000    0.000000    1.820000
  N     1.178000   -0.196000    2.473000
  C     1.255000   -0.207000    3.829000
  C     0.105000   -0.016000    4.595000
  C    -1.116000    0.187000    3.955000
  C    -1.192000    0.198000    2.551000

 FRAGMENT 2 
  N    -2.456000    0.409000    1.893000
  O    -2.541000    0.423000    0.648000
  O    -3.602000    0.600000    2.632000
  F     0.000000    0.000000    0.470000
  H     2.209000   -0.366000    4.313000
  H     0.163000   -0.026000    5.676000
  H    -2.005000    0.335000    4.557000

 FRAGMENT 3 
  C    -2.720000   -8.372000    0.000000
  H    -2.455000   -8.851000   -0.947000
  H    -3.805000   -8.412000    0.129000
  H    -2.244000   -8.918000    0.819000

 FRAGMENT 4 
  S    -2.163000   -6.657000    0.000000

--------------------------------
INTERNAL COORDINATES (ANGSTROEM)
--------------------------------
 C      0   0   0     0.000000000000     0.00000000     0.00000000
 N      1   0   0     1.361069065110     0.00000000     0.00000000
 C      2   1   0     1.358228993948   121.95243626     0.00000000
 C      3   2   1     1.394896770374   120.02620694     0.10655554
 C      4   3   2     1.393431017309   119.34983770   359.90435571
 C      5   4   3     1.406098502951   120.47178172     0.08537773
 N      6   5   4     1.440548853736   120.30882193   180.03842131
 O      7   6   5     1.247976762604   121.13704526   179.93147861
 O      7   6   5     1.376923382037   120.36156660   359.90709941
 F      1   2   3     1.350000000000   118.67037638   179.91115691
 H      3   2   1     1.081504969938   119.86701156   179.98746005
 H      4   3   2     1.082601034546   120.19197482   179.89186186
 H      5   4   3     1.083803026384   118.91636700   180.02085854
 C     10   1   2     8.815309637216    93.05625010    98.55204356
 H     14  10   1     1.093834996697   112.78621480   203.37084127
 H     14  10   1     1.093373678117   109.55094208    81.70087845
 H     14  10   1     1.093367733199   107.45728821   323.43081108
 S     14  10   1     1.803184405434     3.05625552   179.89194742

---------------------------
INTERNAL COORDINATES (A.U.)
---------------------------
 C      0   0   0     0.000000000000     0.00000000     0.00000000
 N      1   0   0     2.572047782411     0.00000000     0.00000000
 C      2   1   0     2.566680825712   121.95243626     0.00000000
 C      3   2   1     2.635972881098   120.02620694     0.10655554
 C      4   3   2     2.633203009226   119.34983770   359.90435571
 C      5   4   3     2.657141087893   120.47178172     0.08537773
 N      6   5   4     2.722242816095   120.30882193   180.03842131
 O      7   6   5     2.358334302820   121.13704526   179.93147861
 O      7   6   5     2.602008099442   120.36156660   359.90709941
 F      1   2   3     2.551130280794   118.67037638   179.91115691
 H      3   2   1     2.043748205657   119.86701156   179.98746005
 H      4   3   2     2.045819467592   120.19197482   179.89186186
 H      5   4   3     2.048090902982   118.91636700   180.02085854
 C     10   1   2    16.658521000056    93.05625010    98.55204356
 H     14  10   1     2.067048579457   112.78621480   203.37084127
 H     14  10   1     2.066176813680   109.55094208    81.70087845
 H     14  10   1     2.066165579412   107.45728821   323.43081108
 S     14  10   1     3.407524695228     3.05625552   179.89194742

---------------------
BASIS SET INFORMATION
---------------------
There are 6 groups of distinct atoms

 Group   1 Type C   : 12s6p1d contracted to 5s4p1d pattern {63111/3111/1}
 Group   2 Type N   : 12s6p1d contracted to 5s4p1d pattern {63111/3111/1}
 Group   3 Type O   : 12s6p1d contracted to 5s4p1d pattern {63111/3111/1}
 Group   4 Type F   : 12s6p1d contracted to 5s4p1d pattern {63111/3111/1}
 Group   5 Type H   : 6s1p contracted to 4s1p pattern {3111/1}
 Group   6 Type S   : 14s10p1d contracted to 7s6p1d pattern {6311111/421111/1}

Atom   0C    basis set group =>   1
Atom   1N    basis set group =>   2
Atom   2C    basis set group =>   1
Atom   3C    basis set group =>   1
Atom   4C    basis set group =>   1
Atom   5C    basis set group =>   1
Atom   6N    basis set group =>   2
Atom   7O    basis set group =>   3
Atom   8O    basis set group =>   3
Atom   9F    basis set group =>   4
Atom  10H    basis set group =>   5
Atom  11H    basis set group =>   5
Atom  12H    basis set group =>   5
Atom  13C    basis set group =>   1
Atom  14H    basis set group =>   5
Atom  15H    basis set group =>   5
Atom  16H    basis set group =>   5
Atom  17S    basis set group =>   6
---------------------------------
AUXILIARY/J BASIS SET INFORMATION
---------------------------------
There are 6 groups of distinct atoms

 Group   1 Type C   : 12s5p4d2f1g contracted to 6s4p3d1f1g pattern {711111/2111/211/2/1}
 Group   2 Type N   : 12s5p4d2f1g contracted to 6s4p3d1f1g pattern {711111/2111/211/2/1}
 Group   3 Type O   : 12s5p4d2f1g contracted to 6s4p3d1f1g pattern {711111/2111/211/2/1}
 Group   4 Type F   : 12s5p4d2f1g contracted to 6s4p3d1f1g pattern {711111/2111/211/2/1}
 Group   5 Type H   : 5s2p1d contracted to 3s1p1d pattern {311/2/1}
 Group   6 Type S   : 14s5p5d2f1g contracted to 8s4p3d1f1g pattern {71111111/2111/311/2/1}

Atom   0C    basis set group =>   1
Atom   1N    basis set group =>   2
Atom   2C    basis set group =>   1
Atom   3C    basis set group =>   1
Atom   4C    basis set group =>   1
Atom   5C    basis set group =>   1
Atom   6N    basis set group =>   2
Atom   7O    basis set group =>   3
Atom   8O    basis set group =>   3
Atom   9F    basis set group =>   4
Atom  10H    basis set group =>   5
Atom  11H    basis set group =>   5
Atom  12H    basis set group =>   5
Atom  13C    basis set group =>   1
Atom  14H    basis set group =>   5
Atom  15H    basis set group =>   5
Atom  16H    basis set group =>   5
Atom  17S    basis set group =>   6


           ************************************************************
           *        Program running with 24 parallel MPI-processes    *
           *              working on a common directory               *
           ************************************************************
------------------------------------------------------------------------------
                           ORCA GTO INTEGRAL CALCULATION
                           -- RI-GTO INTEGRALS CHOSEN --
------------------------------------------------------------------------------
------------------------------------------------------------------------------
                   ___                                                        
                  /   \      - P O W E R E D   B Y -                         
                 /     \                                                     
                 |  |  |   _    _      __       _____    __    __             
                 |  |  |  | |  | |    /  \     |  _  \  |  |  /  |          
                  \  \/   | |  | |   /    \    | | | |  |  | /  /          
                 / \  \   | |__| |  /  /\  \   | |_| |  |  |/  /          
                |  |  |   |  __  | /  /__\  \  |    /   |      \           
                |  |  |   | |  | | |   __   |  |    \   |  |\   \          
                \     /   | |  | | |  |  |  |  | |\  \  |  | \   \       
                 \___/    |_|  |_| |__|  |__|  |_| \__\ |__|  \__/        
                                                                              
                      - O R C A' S   B I G   F R I E N D -                    
                                      &                                       
                       - I N T E G R A L  F E E D E R -                       
                                                                              
 v1 FN, 2020, v2 2021                                                         
------------------------------------------------------------------------------


Reading SHARK input file structure_opt.SHARKINP.tmp ... ok
----------------------
SHARK INTEGRAL PACKAGE
----------------------

Number of atoms                             ...     18
Number of basis functions                   ...    314
Number of shells                            ...    154
Maximum angular momentum                    ...      2
Integral batch strategy                     ... SHARK/LIBINT Hybrid
RI-J (if used) integral strategy            ... SPLIT-RIJ (Revised 2003 algorithm where possible)
Printlevel                                  ...      1
Contraction scheme used                     ... SEGMENTED contraction
Coulomb Range Separation                    ... NOT USED
Exchange Range Separation                   ... Long Range
   Mu parameter                             ...  0.300000
   Scaling (regular/separated)              ...  0.157706  0.842294
Finite Nucleus Model                        ... NOT USED
Auxiliary Coulomb fitting basis             ... AVAILABLE
   # of basis functions in Aux-J            ...    656
   # of shells in Aux-J                     ...    212
   Maximum angular momentum in Aux-J        ...      4
Auxiliary J/K fitting basis                 ... NOT available
Auxiliary Correlation fitting basis         ... NOT available
Auxiliary 'external' fitting basis          ... NOT available
Integral threshold                          ...     2.500000e-11
Primitive cut-off                           ...     2.500000e-12
Primitive pair pre-selection threshold      ...     2.500000e-12

Calculating pre-screening integrals         ... done (  0.0 sec) Dimension = 154
Organizing shell pair data                  ... done (  0.1 sec)
Shell pair information
Total number of shell pairs                 ...     11935
Shell pairs after pre-screening             ...      8685
Total number of primitive shell pairs       ...     38500
Primitive shell pairs kept                  ...     19941
          la=0 lb=0:   2648 shell pairs
          la=1 lb=0:   3577 shell pairs
          la=1 lb=1:   1240 shell pairs
          la=2 lb=0:    691 shell pairs
          la=2 lb=1:    477 shell pairs
          la=2 lb=2:     52 shell pairs

Calculating one electron integrals          ... done (  0.0 sec)
Calculating RI/J V-Matrix + Cholesky decomp.... done (  0.2 sec)
Calculating Nuclear repulsion               ... done (  0.1 sec) ENN=    667.271385824353 Eh

SHARK setup successfully completed in   0.8 seconds

Maximum memory used throughout the entire GTOINT-calculation: 17.4 MB


           ************************************************************
           *        Program running with 24 parallel MPI-processes    *
           *              working on a common directory               *
           ************************************************************
-------------------------------------------------------------------------------
                                 ORCA SCF
-------------------------------------------------------------------------------

------------
SCF SETTINGS
------------
Hamiltonian:
 Density Functional     Method          .... DFT(GTOs)
 Exchange Functional    Exchange        .... WB97X
 Correlation Functional Correlation     .... WB97X
 Gradients option       PostSCFGGA      .... off
 Hybrid DFT is turned on
   Fraction HF Exchange ScalHFX         ....  0.157706
   Scaling of DF-GGA-X  ScalDFX         ....  0.000000
   Scaling of DF-GGA-C  ScalDFC         ....  1.000000
   Scaling of DF-LDA-C  ScalLDAC        ....  1.000000
   Perturbative correction              ....  0.000000
   Density functional embedding theory  .... OFF
 Long-range corrected/Screened/Range-Separated Hybrid DFT is turned on
   Amount of maximum screened exact exchange              ....  0.842294
   Range separation parameter mu (erf(mu*r12)/r12)        ....  0.300000
 RI-approximation to the Coulomb term is turned on
   Number of AuxJ basis functions       .... 656
   RIJ-COSX (HFX calculated with COS-X)).... on


General Settings:
 Integral files         IntName         .... structure_opt
 Hartree-Fock type      HFTyp           .... RHF
 Total Charge           Charge          ....   -1
 Multiplicity           Mult            ....    1
 Number of Electrons    NEL             ....   98
 Basis Dimension        Dim             ....  314
 Nuclear Repulsion      ENuc            ....    667.2713858244 Eh

Convergence Acceleration:
 DIIS                   CNVDIIS         .... on
   Start iteration      DIISMaxIt       ....    12
   Startup error        DIISStart       ....  0.200000
   # of expansion vecs  DIISMaxEq       ....     5
   Bias factor          DIISBfac        ....   1.050
   Max. coefficient     DIISMaxC        ....  10.000
 Trust-Rad. Augm. Hess. CNVTRAH         .... auto
   Auto Start mean grad. ratio tolernc. ....  1.125000
   Auto Start start iteration           ....    20
   Auto Start num. interpolation iter.  ....    10
   Max. Number of Micro iterations      ....    16
   Max. Number of Macro iterations      .... Maxiter - #DIIS iter
   Number of Davidson start vectors     ....     2
   Converg. threshold I  (grad. norm)   ....   1.000e-05
   Converg. threshold II (energy diff.) ....   1.000e-08
   Grad. Scal. Fac. for Micro threshold ....   0.100
   Minimum threshold for Micro iter.    ....   0.010
   NR start threshold (gradient norm)   ....   0.001
   Initial trust radius                 ....   0.400
   Minimum AH scaling param. (alpha)    ....   1.000
   Maximum AH scaling param. (alpha)    .... 1000.000
   Orbital update algorithm             .... Taylor
   White noise on init. David. guess    .... on
   Maximum white noise                  ....   0.010
   Quad. conv. algorithm                .... NR
 SOSCF                  CNVSOSCF        .... on
   Start iteration      SOSCFMaxIt      ....   150
   Startup grad/error   SOSCFStart      ....  0.003300
 Level Shifting         CNVShift        .... on
   Level shift para.    LevelShift      ....    0.2500
   Turn off err/grad.   ShiftErr        ....    0.0010
 Zerner damping         CNVZerner       .... off
 Static damping         CNVDamp         .... on
   Fraction old density DampFac         ....    0.7000
   Max. Damping (<1)    DampMax         ....    0.9800
   Min. Damping (>=0)   DampMin         ....    0.0000
   Turn off err/grad.   DampErr         ....    0.1000
 Fernandez-Rico         CNVRico         .... off

SCF Procedure:
 Maximum # iterations   MaxIter         ....   125
 SCF integral mode      SCFMode         .... Direct
   Integral package                     .... SHARK and LIBINT hybrid scheme
 Reset frequency        DirectResetFreq ....    20
 Integral Threshold     Thresh          ....  2.500e-11 Eh
 Primitive CutOff       TCut            ....  2.500e-12 Eh

Convergence Tolerance:
 Convergence Check Mode ConvCheckMode   .... Total+1el-Energy
 Convergence forced     ConvForced      .... 0
 Energy Change          TolE            ....  1.000e-08 Eh
 1-El. energy change                    ....  1.000e-05 Eh
 Orbital Gradient       TolG            ....  1.000e-05
 Orbital Rotation angle TolX            ....  1.000e-05
 DIIS Error             TolErr          ....  5.000e-07


Diagonalization of the overlap matrix:
Smallest eigenvalue                        ... 4.286e-06
Time for diagonalization                   ...    0.057 sec
Threshold for overlap eigenvalues          ... 1.000e-08
Number of eigenvalues below threshold      ... 0
Time for construction of square roots      ...    0.023 sec
Total time needed                          ...    0.082 sec

Time for model grid setup =    0.423 sec

------------------------------
INITIAL GUESS: MODEL POTENTIAL
------------------------------
Loading Hartree-Fock densities                     ... done
Calculating cut-offs                               ... done
Initializing the effective Hamiltonian             ... done
Setting up the integral package (SHARK)            ... done
Starting the Coulomb interaction                   ... done (   0.4 sec)
Reading the grid                                   ... done
Mapping shells                                     ... done
Starting the XC term evaluation                    ... done (   0.0 sec)
  promolecular density results
     # of electrons  =     96.995486196
     EX              =    -96.552303991
     EC              =     -3.327192053
     EX+EC           =    -99.879496044
Transforming the Hamiltonian                       ... done (   0.0 sec)
Diagonalizing the Hamiltonian                      ... done (   0.0 sec)
Back transforming the eigenvectors                 ... done (   0.0 sec)
Now organizing SCF variables                       ... done
                      ------------------
                      INITIAL GUESS DONE (   0.9 sec)
                      ------------------
-------------------
DFT GRID GENERATION
-------------------

General Integration Accuracy     IntAcc      ... 4.388
Radial Grid Type                 RadialGrid  ... OptM3 with GC (2021)
Angular Grid (max. ang.)         AngularGrid ... 4 (Lebedev-302)
Angular grid pruning method      GridPruning ... 4 (adaptive)
Weight generation scheme         WeightScheme... Becke
Basis function cutoff            BFCut       ... 1.0000e-11
Integration weight cutoff        WCut        ... 1.0000e-14
Angular grids for H and He will be reduced by one unit
Partially contracted basis set               ... off
Rotationally invariant grid construction     ... off

Total number of grid points                  ...    98139
Total number of batches                      ...     1542
Average number of points per batch           ...       63
Average number of grid points per atom       ...     5452
Time for grid setup =    0.611 sec

--------------------
COSX GRID GENERATION
--------------------

GRIDX 1
-------
General Integration Accuracy     IntAcc      ... 3.816
Radial Grid Type                 RadialGrid  ... OptM3 with GC (2021)
Angular Grid (max. ang.)         AngularGrid ... 1 (Lebedev-50)
Angular grid pruning method      GridPruning ... 4 (adaptive)
Weight generation scheme         WeightScheme... Becke
Basis function cutoff            BFCut       ... 1.0000e-11
Integration weight cutoff        WCut        ... 1.0000e-14
Angular grids for H and He will be reduced by one unit
Partially contracted basis set               ... on
Rotationally invariant grid construction     ... off

Total number of grid points                  ...    12266
Total number of batches                      ...      203
Average number of points per batch           ...       60
Average number of grid points per atom       ...      681
UseSFitting                                  ... on

GRIDX 2
-------
General Integration Accuracy     IntAcc      ... 4.020
Radial Grid Type                 RadialGrid  ... OptM3 with GC (2021)
Angular Grid (max. ang.)         AngularGrid ... 2 (Lebedev-110)
Angular grid pruning method      GridPruning ... 4 (adaptive)
Weight generation scheme         WeightScheme... Becke
Basis function cutoff            BFCut       ... 1.0000e-11
Integration weight cutoff        WCut        ... 1.0000e-14
Angular grids for H and He will be reduced by one unit
Partially contracted basis set               ... on
Rotationally invariant grid construction     ... off

Total number of grid points                  ...    31158
Total number of batches                      ...      499
Average number of points per batch           ...       62
Average number of grid points per atom       ...     1731
UseSFitting                                  ... on

GRIDX 3
-------
General Integration Accuracy     IntAcc      ... 4.338
Radial Grid Type                 RadialGrid  ... OptM3 with GC (2021)
Angular Grid (max. ang.)         AngularGrid ... 3 (Lebedev-194)
Angular grid pruning method      GridPruning ... 4 (adaptive)
Weight generation scheme         WeightScheme... Becke
Basis function cutoff            BFCut       ... 1.0000e-11
Integration weight cutoff        WCut        ... 1.0000e-14
Angular grids for H and He will be reduced by one unit
Partially contracted basis set               ... on
Rotationally invariant grid construction     ... off

Total number of grid points                  ...    69243
Total number of batches                      ...     1091
Average number of points per batch           ...       63
Average number of grid points per atom       ...     3847
UseSFitting                                  ... on

Time for X-Grid setup             =    1.024 sec


--------------------
CPCM SOLVATION MODEL
--------------------
CPCM parameters:
  Epsilon                                         ...      78.3550
  Refrac                                          ...       1.3328
  Rsolv                                           ...       1.3000
  Surface type                                    ... GAUSSIAN VDW
  Epsilon function type                           ...         CPCM
Solvent:                                     ... WATER
SMD-CDS solvent descriptors:
  Soln                                       ...    1.3328
  Soln25                                     ...    1.3323
  Sola                                       ...    0.0000
  Solb                                       ...    0.0000
  Solg                                       ...    0.0000
  Solc                                       ...    0.0000
  Solh                                       ...    0.0000
Radii:
 Radius for C  used is    3.4960 Bohr (=   1.8500 Ang.)
 Radius for N  used is    3.5716 Bohr (=   1.8900 Ang.)
 Radius for O  used is    2.8724 Bohr (=   1.5200 Ang.)
 Radius for F  used is    3.2692 Bohr (=   1.7300 Ang.)
 Radius for H  used is    2.2677 Bohr (=   1.2000 Ang.)
 Radius for S  used is    4.7054 Bohr (=   2.4900 Ang.)
Calculating surface                               ...        done! (  0.0s)
GEPOL surface points                              ...         1158
GEPOL Volume                                      ...    1361.5892
GEPOL Surface-area                                ...     848.0667
Calculating surface distance matrix               ...        done! (  0.0s)
Performing Cholesky decomposition & store         ...        done! (  0.1s)
Overall time for CPCM initialization              ...                 0.1s
--------------
SCF ITERATIONS
--------------
ITER       Energy         Delta-E        Max-DP      RMS-DP      [F,P]     Damp
               ***  Starting incremental Fock matrix formation  ***
  0   -989.8658225341   0.000000000000 0.32936331  0.00325680  0.2373523 0.7000
  1   -990.0280675223  -0.162244988155 0.30427809  0.00261181  0.1192266 0.7000
                               ***Turning on DIIS***
  2   -990.1005219086  -0.072454386309 1.74416630  0.00977854  0.0640119 0.0000
  3   -990.2245878005  -0.124065891916 0.77328829  0.00410643  0.0550101 0.0000
  4   -990.2437391146  -0.019151314071 0.26966764  0.00143217  0.0124205 0.0000
  5   -990.2449149896  -0.001175875011 0.13986151  0.00076448  0.0061402 0.0000
                      *** Initiating the SOSCF procedure ***
                           *** Shutting down DIIS ***
                      *** Re-Reading the Fockian *** 
                      *** Removing any level shift *** 
ITER      Energy       Delta-E        Grad      Rot      Max-DP    RMS-DP
  6   -990.24514628  -0.0002312947  0.001495  0.001495  0.038513  0.000238
               *** Restarting incremental Fock matrix formation ***
  7   -990.24524731  -0.0001010238  0.000979  0.002412  0.015835  0.000197
  8   -990.24528747  -0.0000401620  0.000391  0.002915  0.015503  0.000186
  9   -990.24529345  -0.0000059822  0.000694  0.000731  0.011631  0.000096
 10   -990.24530051  -0.0000070534  0.000114  0.000221  0.004048  0.000029
 11   -990.24530058  -0.0000000730  0.000093  0.000126  0.003602  0.000020
 12   -990.24530094  -0.0000003579  0.000015  0.000040  0.007083  0.000038
 13   -990.24530094  -0.0000000041  0.000007  0.000031  0.006220  0.000038
 14   -990.24530095  -0.0000000059  0.000005  0.000013  0.005774  0.000035
                  ***Gradient check signals convergence***
              ***Rediagonalizing the Fockian in SOSCF/NRSCF***

               *****************************************************
               *                     SUCCESS                       *
               *           SCF CONVERGED AFTER  15 CYCLES          *
               *****************************************************

Old exchange energy                            =    -28.432711282 Eh
New exchange energy                            =    -28.432716938 Eh
Exchange energy change after final integration =     -0.000005656 Eh
Total energy after final integration           =   -990.245306607 Eh
Final COS-X integration done in                =     3.370 sec

SMD CDS free energy correction energy :                 5.87314     Kcal/mol
Total Energy after SMD CDS correction =              -990.235947156 Eh

----------------
TOTAL SCF ENERGY
----------------

Total Energy       :         -990.23594716 Eh          -26945.69001 eV

Components:
Nuclear Repulsion  :          667.27138582 Eh           18157.37751 eV
Electronic Energy  :        -1657.50733298 Eh          -45103.06753 eV
One Electron Energy:        -2693.51913448 Eh          -73294.38186 eV
Two Electron Energy:         1036.01180150 Eh           28191.31434 eV
Max COSX asymmetry :            0.00000209 Eh               0.00006 eV
CPCM Dielectric    :           -0.13298073 Eh              -3.61859 eV
SMD CDS (Gcds)     :            0.00935945 Eh               0.25468 eV

Virial components:
Potential Energy   :        -1977.46833222 Eh          -53809.64895 eV
Kinetic Energy     :          987.23238506 Eh           26863.95893 eV
Virial Ratio       :            2.00304241


DFT components:
N(Alpha)           :       48.999814094616 electrons
N(Beta)            :       48.999814094616 electrons
N(Total)           :       97.999628189231 electrons
E(XC)              :      -73.338120908800 Eh       
DFET-embed. en.    :        0.000000000000 Eh       
CPCM Solvation Model Properties:
Surface-charge          :            0.94446916
Charge-correction       :           -0.00545558 Eh              -0.14845 eV
Free-energy (cav+disp)  :            0.00935945 Eh               0.25468 eV

---------------
SCF CONVERGENCE
---------------

  Last Energy change         ...   -5.0082e-09  Tolerance :   1.0000e-08
  Last MAX-Density change    ...    2.6645e-15  Tolerance :   1.0000e-07
  Last RMS-Density change    ...    3.8035e-17  Tolerance :   5.0000e-09
  Last Orbital Gradient      ...    1.8882e-06  Tolerance :   1.0000e-05
  Last Orbital Rotation      ...    1.8377e-06  Tolerance :   1.0000e-05

             **** THE GBW FILE WAS UPDATED (structure_opt.gbw) ****
             **** DENSITY structure_opt.scfp WAS UPDATED ****
             **** ENERGY FILE WAS UPDATED (structure_opt.en.tmp) ****
             **** THE GBW FILE WAS UPDATED (structure_opt.gbw) ****
             **** DENSITY structure_opt.scfp WAS UPDATED ****
----------------
ORBITAL ENERGIES
----------------

  NO   OCC          E(Eh)            E(eV) 
   0   2.0000     -88.720070     -2414.1958 
   1   2.0000     -24.793379      -674.6621 
   2   2.0000     -19.275677      -524.5178 
   3   2.0000     -19.243984      -523.6554 
   4   2.0000     -14.669894      -399.1881 
   5   2.0000     -14.435627      -392.8134 
   6   2.0000     -10.437768      -284.0261 
   7   2.0000     -10.364227      -282.0249 
   8   2.0000     -10.338288      -281.3191 
   9   2.0000     -10.321262      -280.8558 
  10   2.0000     -10.290584      -280.0210 
  11   2.0000     -10.235834      -278.5312 
  12   2.0000      -7.915952      -215.4040 
  13   2.0000      -5.879095      -159.9783 
  14   2.0000      -5.871705      -159.7772 
  15   2.0000      -5.871702      -159.7771 
  16   2.0000      -1.396412       -37.9983 
  17   2.0000      -1.348292       -36.6889 
  18   2.0000      -1.151554       -31.3354 
  19   2.0000      -1.109347       -30.1869 
  20   2.0000      -1.008486       -27.4423 
  21   2.0000      -0.943489       -25.6737 
  22   2.0000      -0.874078       -23.7849 
  23   2.0000      -0.836041       -22.7498 
  24   2.0000      -0.796738       -21.6803 
  25   2.0000      -0.769264       -20.9327 
  26   2.0000      -0.706067       -19.2131 
  27   2.0000      -0.686628       -18.6841 
  28   2.0000      -0.669463       -18.2170 
  29   2.0000      -0.665060       -18.0972 
  30   2.0000      -0.661794       -18.0083 
  31   2.0000      -0.633339       -17.2340 
  32   2.0000      -0.620417       -16.8824 
  33   2.0000      -0.615332       -16.7440 
  34   2.0000      -0.563879       -15.3439 
  35   2.0000      -0.537196       -14.6178 
  36   2.0000      -0.528021       -14.3682 
  37   2.0000      -0.528002       -14.3677 
  38   2.0000      -0.494287       -13.4502 
  39   2.0000      -0.494006       -13.4426 
  40   2.0000      -0.456163       -12.4128 
  41   2.0000      -0.432552       -11.7703 
  42   2.0000      -0.421724       -11.4757 
  43   2.0000      -0.416525       -11.3342 
  44   2.0000      -0.408115       -11.1054 
  45   2.0000      -0.390665       -10.6305 
  46   2.0000      -0.385008       -10.4766 
  47   2.0000      -0.258870        -7.0442 
  48   2.0000      -0.258843        -7.0435 
  49   0.0000      -0.064839        -1.7644 
  50   0.0000       0.022614         0.6154 
  51   0.0000       0.052715         1.4345 
  52   0.0000       0.055473         1.5095 
  53   0.0000       0.058572         1.5938 
  54   0.0000       0.067922         1.8482 
  55   0.0000       0.072257         1.9662 
  56   0.0000       0.087960         2.3935 
  57   0.0000       0.090126         2.4525 
  58   0.0000       0.090615         2.4658 
  59   0.0000       0.100847         2.7442 
  60   0.0000       0.112269         3.0550 
  61   0.0000       0.116411         3.1677 
  62   0.0000       0.124309         3.3826 
  63   0.0000       0.130228         3.5437 
  64   0.0000       0.137348         3.7374 
  65   0.0000       0.142264         3.8712 
  66   0.0000       0.144376         3.9287 
  67   0.0000       0.156276         4.2525 
  68   0.0000       0.163509         4.4493 
  69   0.0000       0.167584         4.5602 
  70   0.0000       0.167741         4.5645 
  71   0.0000       0.172089         4.6828 
  72   0.0000       0.173996         4.7347 
  73   0.0000       0.179020         4.8714 
  74   0.0000       0.179481         4.8839 
  75   0.0000       0.180959         4.9242 
  76   0.0000       0.191481         5.2105 
  77   0.0000       0.195413         5.3175 
  78   0.0000       0.196359         5.3432 
  79   0.0000       0.204171         5.5558 
  80   0.0000       0.207824         5.6552 
  81   0.0000       0.214285         5.8310 
  82   0.0000       0.221799         6.0355 
  83   0.0000       0.223927         6.0934 
  84   0.0000       0.234619         6.3843 
  85   0.0000       0.235664         6.4127 
  86   0.0000       0.250657         6.8207 
  87   0.0000       0.259796         7.0694 
  88   0.0000       0.261569         7.1177 
  89   0.0000       0.269987         7.3467 
  90   0.0000       0.271331         7.3833 
  91   0.0000       0.277999         7.5647 
  92   0.0000       0.278362         7.5746 
  93   0.0000       0.281649         7.6641 
  94   0.0000       0.283432         7.7126 
  95   0.0000       0.296485         8.0678 
  96   0.0000       0.302087         8.2202 
  97   0.0000       0.313255         8.5241 
  98   0.0000       0.319625         8.6974 
  99   0.0000       0.327189         8.9033 
 100   0.0000       0.332841         9.0571 
 101   0.0000       0.338192         9.2027 
 102   0.0000       0.349757         9.5174 
 103   0.0000       0.353279         9.6132 
 104   0.0000       0.360623         9.8131 
 105   0.0000       0.362893         9.8748 
 106   0.0000       0.371164        10.0999 
 107   0.0000       0.373715        10.1693 
 108   0.0000       0.397752        10.8234 
 109   0.0000       0.403940        10.9918 
 110   0.0000       0.409487        11.1427 
 111   0.0000       0.417180        11.3520 
 112   0.0000       0.424337        11.5468 
 113   0.0000       0.428658        11.6644 
 114   0.0000       0.439523        11.9600 
 115   0.0000       0.451256        12.2793 
 116   0.0000       0.458264        12.4700 
 117   0.0000       0.462723        12.5913 
 118   0.0000       0.469721        12.7818 
 119   0.0000       0.479861        13.0577 
 120   0.0000       0.492089        13.3904 
 121   0.0000       0.504263        13.7217 
 122   0.0000       0.520109        14.1529 
 123   0.0000       0.528378        14.3779 
 124   0.0000       0.528934        14.3930 
 125   0.0000       0.548804        14.9337 
 126   0.0000       0.583481        15.8773 
 127   0.0000       0.611709        16.6455 
 128   0.0000       0.615366        16.7450 
 129   0.0000       0.619043        16.8450 
 130   0.0000       0.630992        17.1702 
 131   0.0000       0.641660        17.4604 
 132   0.0000       0.658065        17.9069 
 133   0.0000       0.661805        18.0086 
 134   0.0000       0.668563        18.1925 
 135   0.0000       0.700459        19.0605 
 136   0.0000       0.702398        19.1132 
 137   0.0000       0.726121        19.7587 
 138   0.0000       0.745210        20.2782 
 139   0.0000       0.770806        20.9747 
 140   0.0000       0.770937        20.9783 
 141   0.0000       0.780314        21.2334 
 142   0.0000       0.811608        22.0850 
 143   0.0000       0.826400        22.4875 
 144   0.0000       0.840676        22.8760 
 145   0.0000       0.850046        23.1309 
 146   0.0000       0.852469        23.1969 
 147   0.0000       0.872721        23.7479 
 148   0.0000       0.899497        24.4766 
 149   0.0000       0.910487        24.7756 
 150   0.0000       0.920256        25.0414 
 151   0.0000       0.933762        25.4089 
 152   0.0000       0.953860        25.9559 
 153   0.0000       0.954333        25.9687 
 154   0.0000       0.960366        26.1329 
 155   0.0000       0.973343        26.4860 
 156   0.0000       0.978828        26.6353 
 157   0.0000       0.987145        26.8616 
 158   0.0000       1.004342        27.3295 
 159   0.0000       1.004367        27.3302 
 160   0.0000       1.009045        27.4575 
 161   0.0000       1.034655        28.1544 
 162   0.0000       1.044075        28.4107 
 163   0.0000       1.061842        28.8942 
 164   0.0000       1.074290        29.2329 
 165   0.0000       1.080507        29.4021 
 166   0.0000       1.083643        29.4874 
 167   0.0000       1.140000        31.0210 
 168   0.0000       1.144667        31.1480 
 169   0.0000       1.152313        31.3560 
 170   0.0000       1.172825        31.9142 
 171   0.0000       1.189855        32.3776 
 172   0.0000       1.198540        32.6139 
 173   0.0000       1.214262        33.0418 
 174   0.0000       1.249899        34.0115 
 175   0.0000       1.260719        34.3059 
 176   0.0000       1.277079        34.7511 
 177   0.0000       1.278950        34.8020 
 178   0.0000       1.279479        34.8164 
 179   0.0000       1.292930        35.1824 
 180   0.0000       1.298644        35.3379 
 181   0.0000       1.356596        36.9148 
 182   0.0000       1.397448        38.0265 
 183   0.0000       1.405977        38.2586 
 184   0.0000       1.471051        40.0293 
 185   0.0000       1.512176        41.1484 
 186   0.0000       1.547626        42.1131 
 187   0.0000       1.585882        43.1540 
 188   0.0000       1.589729        43.2587 
 189   0.0000       1.589802        43.2607 
 190   0.0000       1.617902        44.0254 
 191   0.0000       1.631937        44.4073 
 192   0.0000       1.655204        45.0404 
 193   0.0000       1.658088        45.1189 
 194   0.0000       1.693515        46.0829 
 195   0.0000       1.693764        46.0897 
 196   0.0000       1.704382        46.3786 
 197   0.0000       1.715508        46.6813 
 198   0.0000       1.748804        47.5874 
 199   0.0000       1.761007        47.9194 
 200   0.0000       1.786912        48.6243 
 201   0.0000       1.809363        49.2353 
 202   0.0000       1.810026        49.2533 
 203   0.0000       1.813454        49.3466 
 204   0.0000       1.843223        50.1567 
 205   0.0000       1.846449        50.2444 
 206   0.0000       1.869031        50.8589 
 207   0.0000       1.910941        51.9993 
 208   0.0000       1.934357        52.6365 
 209   0.0000       1.947639        52.9980 
 210   0.0000       1.970362        53.6163 
 211   0.0000       1.972024        53.6615 
 212   0.0000       1.990754        54.1712 
 213   0.0000       2.010701        54.7139 
 214   0.0000       2.032205        55.2991 
 215   0.0000       2.045181        55.6522 
 216   0.0000       2.051958        55.8366 
 217   0.0000       2.110366        57.4260 
 218   0.0000       2.141098        58.2622 
 219   0.0000       2.148839        58.4729 
 220   0.0000       2.168095        58.9969 
 221   0.0000       2.172946        59.1289 
 222   0.0000       2.176644        59.2295 
 223   0.0000       2.206788        60.0498 
 224   0.0000       2.292640        62.3859 
 225   0.0000       2.323895        63.2364 
 226   0.0000       2.332095        63.4595 
 227   0.0000       2.332649        63.4746 
 228   0.0000       2.399373        65.2903 
 229   0.0000       2.429497        66.1100 
 230   0.0000       2.495200        67.8978 
 231   0.0000       2.563711        69.7621 
 232   0.0000       2.589900        70.4748 
 233   0.0000       2.595587        70.6295 
 234   0.0000       2.605131        70.8892 
 235   0.0000       2.627187        71.4894 
 236   0.0000       2.659485        72.3683 
 237   0.0000       2.660176        72.3871 
 238   0.0000       2.673459        72.7485 
 239   0.0000       2.674081        72.7654 
 240   0.0000       2.692334        73.2621 
 241   0.0000       2.770398        75.3864 
 242   0.0000       2.784884        75.7806 
 243   0.0000       2.828801        76.9756 
 244   0.0000       2.840131        77.2839 
 245   0.0000       2.858158        77.7744 
 246   0.0000       2.867569        78.0305 
 247   0.0000       2.883248        78.4572 
 248   0.0000       2.895150        78.7810 
 249   0.0000       2.901568        78.9557 
 250   0.0000       2.932483        79.7969 
 251   0.0000       2.937280        79.9275 
 252   0.0000       2.960437        80.5576 
 253   0.0000       2.976291        80.9890 
 254   0.0000       2.986722        81.2728 
 255   0.0000       3.001893        81.6856 
 256   0.0000       3.008989        81.8788 
 257   0.0000       3.098288        84.3087 
 258   0.0000       3.153316        85.8061 
 259   0.0000       3.188618        86.7667 
 260   0.0000       3.268568        88.9422 
 261   0.0000       3.307393        89.9987 
 262   0.0000       3.307779        90.0092 
 263   0.0000       3.340170        90.8906 
 264   0.0000       3.368113        91.6510 
 265   0.0000       3.454211        93.9939 
 266   0.0000       3.497852        95.1814 
 267   0.0000       3.558905        96.8427 
 268   0.0000       3.593591        97.7866 
 269   0.0000       3.680865       100.1614 
 270   0.0000       3.703609       100.7803 
 271   0.0000       3.753311       102.1328 
 272   0.0000       3.853438       104.8574 
 273   0.0000       3.883990       105.6888 
 274   0.0000       3.889367       105.8350 
 275   0.0000       3.890783       105.8736 
 276   0.0000       3.903874       106.2298 
 277   0.0000       3.924568       106.7929 
 278   0.0000       4.015312       109.2622 
 279   0.0000       4.059866       110.4746 
 280   0.0000       4.119882       112.1077 
 281   0.0000       4.143763       112.7575 
 282   0.0000       4.169036       113.4452 
 283   0.0000       4.405583       119.8820 
 284   0.0000       4.479354       121.8894 
 285   0.0000       4.503589       122.5489 
 286   0.0000       4.760616       129.5429 
 287   0.0000       4.942695       134.4976 
 288   0.0000       5.071869       138.0126 
 289   0.0000       5.100027       138.7788 
 290   0.0000       5.191971       141.2807 
 291   0.0000       5.220650       142.0611 
 292   0.0000       5.314635       144.6186 
 293   0.0000       5.698661       155.0685 
 294   0.0000       6.130349       166.8153 
 295   0.0000       6.414368       174.5438 
 296   0.0000       6.539475       177.9482 
 297   0.0000       6.842361       186.1901 
 298   0.0000       7.977950       217.0911 
 299   0.0000      17.546117       477.4541 
 300   0.0000      17.547443       477.4902 
 301   0.0000      17.636009       479.9002 
 302   0.0000      23.650779       643.5704 
 303   0.0000      23.890289       650.0878 
 304   0.0000      23.984172       652.6425 
 305   0.0000      24.030008       653.8898 
 306   0.0000      24.071015       655.0056 
 307   0.0000      24.181354       658.0081 
 308   0.0000      35.375068       962.6045 
 309   0.0000      35.657023       970.2769 
 310   0.0000      49.899968      1357.8472 
 311   0.0000      49.963683      1359.5809 
 312   0.0000      66.792896      1817.5271 
 313   0.0000     188.966912      5142.0511 

--------------------
FRAGMENT INFORMATION
--------------------
Fragment  1:    0   1   2   3   4   5 
Fragment  2:    6   7   8   9  10  11  12 
Fragment  3:   13  14  15  16 
Fragment  4:   17 


                    ********************************
                    * MULLIKEN POPULATION ANALYSIS *
                    ********************************

-------------------------
MULLIKEN FRAGMENT CHARGES
-------------------------
 Fragment   0 :  -0.452974
 Fragment   1 :   0.452676
 Fragment   2 :  -0.025518
 Fragment   3 :  -0.974183
Sum of fragment charges:   -1.0000000

---------------------------------
MULLIKEN FRAGMENT OVERLAP CHARGES
---------------------------------
                  0          1          2          3    
      0      20.550035   0.585729  -0.000073  -0.000315
      1       0.585729  34.959837   0.000004   0.000298
      2      -0.000073   0.000004  11.651051  -0.683770
      3      -0.000315   0.000298  -0.683770  17.316076

-----------------------
MULLIKEN ATOMIC CHARGES
-----------------------
   0 C :   -0.016124
   1 N :   -0.195456
   2 C :   -0.300533
   3 C :   -0.250179
   4 C :    0.407735
   5 C :   -0.098418
   6 N :   -0.048510
   7 O :   -0.060761
   8 O :   -0.237484
   9 F :   -0.102939
  10 H :    0.295496
  11 H :    0.281211
  12 H :    0.325662
  13 C :   -0.405064
  14 H :    0.126205
  15 H :    0.126340
  16 H :    0.127001
  17 S :   -0.974183
Sum of atomic charges:   -1.0000000

--------------------------------
MULLIKEN REDUCED ORBITAL CHARGES
--------------------------------
  0 C s       :     3.262397  s :     3.262397
      pz      :     0.676379  p :     2.593277
      px      :     0.972090
      py      :     0.944808
      dz2     :     0.052756  d :     0.160451
      dxz     :     0.048844
      dyz     :     0.028442
      dx2y2   :     0.013770
      dxy     :     0.016638
  1 N s       :     3.621408  s :     3.621408
      pz      :     1.141568  p :     3.543521
      px      :     1.238838
      py      :     1.163116
      dz2     :     0.008167  d :     0.030527
      dxz     :     0.007239
      dyz     :     0.004758
      dx2y2   :     0.005505
      dxy     :     0.004859
  2 C s       :     3.381521  s :     3.381521
      pz      :     0.810703  p :     2.834868
      px      :     1.171222
      py      :     0.852942
      dz2     :     0.023580  d :     0.084145
      dxz     :     0.032194
      dyz     :     0.014799
      dx2y2   :     0.007223
      dxy     :     0.006348
  3 C s       :     3.204718  s :     3.204718
      pz      :     1.155050  p :     2.992302
      px      :     0.870816
      py      :     0.966436
      dz2     :     0.015294  d :     0.053159
      dxz     :     0.017412
      dyz     :     0.005093
      dx2y2   :     0.008214
      dxy     :     0.007145
  4 C s       :     2.528546  s :     2.528546
      pz      :     0.911164  p :     3.006627
      px      :     1.248586
      py      :     0.846877
      dz2     :     0.016546  d :     0.057092
      dxz     :     0.015856
      dyz     :     0.010569
      dx2y2   :     0.007213
      dxy     :     0.006907
  5 C s       :     3.297077  s :     3.297077
      pz      :     1.118808  p :     2.728197
      px      :     0.485915
      py      :     1.123474
      dz2     :     0.013628  d :     0.073144
      dxz     :     0.029768
      dyz     :     0.010341
      dx2y2   :     0.011216
      dxy     :     0.008191
  6 N s       :     3.573398  s :     3.573398
      pz      :     1.055100  p :     3.366121
      px      :     1.208649
      py      :     1.102372
      dz2     :     0.027716  d :     0.108991
      dxz     :     0.039362
      dyz     :     0.023078
      dx2y2   :     0.008551
      dxy     :     0.010284
  7 O s       :     3.784928  s :     3.784928
      pz      :     1.028184  p :     4.257135
      px      :     1.828445
      py      :     1.400506
      dz2     :     0.009710  d :     0.018699
      dxz     :     0.003513
      dyz     :     0.005307
      dx2y2   :     0.000102
      dxy     :     0.000067
  8 O s       :     3.823435  s :     3.823435
      pz      :     1.624948  p :     4.401934
      px      :     1.218392
      py      :     1.558594
      dz2     :     0.001059  d :     0.012115
      dxz     :     0.004900
      dyz     :     0.000879
      dx2y2   :     0.003118
      dxy     :     0.002159
  9 F s       :     3.919008  s :     3.919008
      pz      :     1.389089  p :     5.178599
      px      :     1.915767
      py      :     1.873743
      dz2     :     0.003097  d :     0.005332
      dxz     :     0.000998
      dyz     :     0.001201
      dx2y2   :     0.000027
      dxy     :     0.000009
 10 H s       :     0.680604  s :     0.680604
      pz      :     0.005481  p :     0.023900
      px      :     0.014122
      py      :     0.004296
 11 H s       :     0.693825  s :     0.693825
      pz      :     0.016374  p :     0.024964
      px      :     0.003655
      py      :     0.004936
 12 H s       :     0.648816  s :     0.648816
      pz      :     0.007743  p :     0.025522
      px      :     0.013379
      py      :     0.004401
 13 C s       :     3.265938  s :     3.265938
      pz      :     1.060673  p :     3.086512
      px      :     1.050904
      py      :     0.974936
      dz2     :     0.008992  d :     0.052614
      dxz     :     0.004618
      dyz     :     0.015622
      dx2y2   :     0.014554
      dxy     :     0.008827
 14 H s       :     0.851093  s :     0.851093
      pz      :     0.011168  p :     0.022702
      px      :     0.005170
      py      :     0.006365
 15 H s       :     0.850918  s :     0.850918
      pz      :     0.004807  p :     0.022741
      px      :     0.013266
      py      :     0.004668
 16 H s       :     0.850270  s :     0.850270
      pz      :     0.009546  p :     0.022728
      px      :     0.006299
      py      :     0.006884
 17 S s       :     6.023998  s :     6.023998
      pz      :     3.995603  p :    10.918780
      px      :     3.893773
      py      :     3.029404
      dz2     :     0.005601  d :     0.031405
      dxz     :     0.000313
      dyz     :     0.004227
      dx2y2   :     0.012641
      dxy     :     0.008623


                     *******************************
                     * LOEWDIN POPULATION ANALYSIS *
                     *******************************

------------------------
LOEWDIN FRAGMENT CHARGES
------------------------
 Fragment   0 :   0.057771
 Fragment   1 :  -0.057802
 Fragment   2 :  -0.355211
 Fragment   3 :  -0.644759

----------------------------
LOEWDIN FRAGMENT BOND ORDERS
----------------------------
                  0          1          2          3    
      0      56.960963   6.779061   0.000052   0.000220
      1       6.779061  43.787538   0.000010   0.000072
      2       0.000052   0.000010  15.419574   1.742430
      3       0.000220   0.000072   1.742430  16.644759

----------------------
LOEWDIN ATOMIC CHARGES
----------------------
   0 C :    0.111461
   1 N :   -0.111693
   2 C :    0.077390
   3 C :   -0.033764
   4 C :    0.078084
   5 C :   -0.063706
   6 N :    0.241516
   7 O :   -0.154049
   8 O :   -0.338905
   9 F :   -0.078113
  10 H :    0.087022
  11 H :    0.084556
  12 H :    0.100172
  13 C :   -0.358451
  14 H :    0.001157
  15 H :    0.000948
  16 H :    0.001135
  17 S :   -0.644759

-------------------------------
LOEWDIN REDUCED ORBITAL CHARGES
-------------------------------
  0 C s       :     2.743742  s :     2.743742
      pz      :     0.849347  p :     2.815671
      px      :     1.080464
      py      :     0.885859
      dz2     :     0.112517  d :     0.329127
      dxz     :     0.100714
      dyz     :     0.050389
      dx2y2   :     0.033878
      dxy     :     0.031629
  1 N s       :     3.151575  s :     3.151575
      pz      :     1.301189  p :     3.903279
      px      :     1.416905
      py      :     1.185184
      dz2     :     0.017387  d :     0.056840
      dxz     :     0.015719
      dyz     :     0.007792
      dx2y2   :     0.009545
      dxy     :     0.006398
  2 C s       :     2.786892  s :     2.786892
      pz      :     1.032880  p :     2.953875
      px      :     1.096544
      py      :     0.824451
      dz2     :     0.060303  d :     0.181844
      dxz     :     0.069055
      dyz     :     0.027981
      dx2y2   :     0.014017
      dxy     :     0.010489
  3 C s       :     2.781235  s :     2.781235
      pz      :     1.081336  p :     3.128171
      px      :     1.092127
      py      :     0.954707
      dz2     :     0.034118  d :     0.124358
      dxz     :     0.045069
      dyz     :     0.008011
      dx2y2   :     0.022212
      dxy     :     0.014948
  4 C s       :     2.779263  s :     2.779263
      pz      :     1.065825  p :     3.014357
      px      :     1.108244
      py      :     0.840289
      dz2     :     0.040906  d :     0.128296
      dxz     :     0.039162
      dyz     :     0.021255
      dx2y2   :     0.015049
      dxy     :     0.011925
  5 C s       :     2.757943  s :     2.757943
      pz      :     1.088493  p :     3.125441
      px      :     0.957232
      py      :     1.079716
      dz2     :     0.039908  d :     0.180322
      dxz     :     0.071778
      dyz     :     0.019833
      dx2y2   :     0.031418
      dxy     :     0.017385
  6 N s       :     3.051968  s :     3.051968
      pz      :     1.205968  p :     3.500154
      px      :     1.215064
      py      :     1.079121
      dz2     :     0.060436  d :     0.206363
      dxz     :     0.076194
      dyz     :     0.035695
      dx2y2   :     0.017517
      dxy     :     0.016521
  7 O s       :     3.581199  s :     3.581199
      pz      :     1.283709  p :     4.540538
      px      :     1.838833
      py      :     1.417996
      dz2     :     0.020437  d :     0.032312
      dxz     :     0.005156
      dyz     :     0.006529
      dx2y2   :     0.000119
      dxy     :     0.000071
  8 O s       :     3.667380  s :     3.667380
      pz      :     1.709917  p :     4.651044
      px      :     1.369836
      py      :     1.571290
      dz2     :     0.001545  d :     0.020482
      dxz     :     0.009263
      dyz     :     0.001173
      dx2y2   :     0.005711
      dxy     :     0.002790
  9 F s       :     3.714954  s :     3.714954
      pz      :     1.535176  p :     5.355789
      px      :     1.934355
      py      :     1.886258
      dz2     :     0.004766  d :     0.007370
      dxz     :     0.001184
      dyz     :     0.001375
      dx2y2   :     0.000037
      dxy     :     0.000009
 10 H s       :     0.842581  s :     0.842581
      pz      :     0.016677  p :     0.070398
      px      :     0.042296
      py      :     0.011426
 11 H s       :     0.842996  s :     0.842996
      pz      :     0.047835  p :     0.072448
      px      :     0.011209
      py      :     0.013404
 12 H s       :     0.826601  s :     0.826601
      pz      :     0.023098  p :     0.073227
      px      :     0.038713
      py      :     0.011416
 13 C s       :     2.858256  s :     2.858256
      pz      :     1.118152  p :     3.393321
      px      :     1.121651
      py      :     1.153517
      dz2     :     0.018277  d :     0.106874
      dxz     :     0.008289
      dyz     :     0.031099
      dx2y2   :     0.030880
      dxy     :     0.018330
 14 H s       :     0.927135  s :     0.927135
      pz      :     0.035514  p :     0.071709
      px      :     0.015228
      py      :     0.020967
 15 H s       :     0.927261  s :     0.927261
      pz      :     0.013959  p :     0.071791
      px      :     0.043072
      py      :     0.014760
 16 H s       :     0.927066  s :     0.927066
      pz      :     0.030020  p :     0.071798
      px      :     0.018989
      py      :     0.022789
 17 S s       :     5.613802  s :     5.613802
      pz      :     3.936769  p :    10.993837
      px      :     3.858943
      py      :     3.198125
      dz2     :     0.006760  d :     0.037119
      dxz     :     0.000342
      dyz     :     0.004741
      dx2y2   :     0.015121
      dxy     :     0.010155


                      *****************************
                      * MAYER POPULATION ANALYSIS *
                      *****************************

  NA   - Mulliken gross atomic population
  ZA   - Total nuclear charge
  QA   - Mulliken gross atomic charge
  VA   - Mayer's total valence
  BVA  - Mayer's bonded valence
  FA   - Mayer's free valence

  ATOM       NA         ZA         QA         VA         BVA        FA
  0 C      6.0161     6.0000    -0.0161     4.3342     4.3342    -0.0000
  1 N      7.1955     7.0000    -0.1955     2.6945     2.6945     0.0000
  2 C      6.3005     6.0000    -0.3005     3.9820     3.9820    -0.0000
  3 C      6.2502     6.0000    -0.2502     4.3338     4.3338     0.0000
  4 C      5.5923     6.0000     0.4077     4.2115     4.2115     0.0000
  5 C      6.0984     6.0000    -0.0984     3.3935     3.3935    -0.0000
  6 N      7.0485     7.0000    -0.0485     3.8923     3.8923    -0.0000
  7 O      8.0608     8.0000    -0.0608     2.2256     2.2256    -0.0000
  8 O      8.2375     8.0000    -0.2375     1.9985     1.9985     0.0000
  9 F      9.1029     9.0000    -0.1029     0.9615     0.9615     0.0000
 10 H      0.7045     1.0000     0.2955     0.8723     0.8723    -0.0000
 11 H      0.7188     1.0000     0.2812     0.9029     0.9029     0.0000
 12 H      0.6743     1.0000     0.3257     0.8351     0.8351    -0.0000
 13 C      6.4051     6.0000    -0.4051     3.5662     3.5662     0.0000
 14 H      0.8738     1.0000     0.1262     0.9430     0.9430     0.0000
 15 H      0.8737     1.0000     0.1263     0.9423     0.9423     0.0000
 16 H      0.8730     1.0000     0.1270     0.9425     0.9425     0.0000
 17 S     16.9742    16.0000    -0.9742     0.5911     0.5911     0.0000

  Mayer bond orders larger than 0.100000
B(  0-C ,  1-N ) :   1.2894 B(  0-C ,  2-C ) :   0.1939 B(  0-C ,  3-C ) :   0.1458 
B(  0-C ,  4-C ) :   0.3247 B(  0-C ,  5-C ) :   1.1863 B(  0-C ,  6-N ) :  -0.1919 
B(  0-C ,  9-F ) :   1.3918 B(  1-N ,  2-C ) :   1.1829 B(  1-N ,  5-C ) :   0.1774 
B(  2-C ,  3-C ) :   1.5830 B(  2-C , 10-H ) :   0.8840 B(  3-C ,  4-C ) :   1.4924 
B(  3-C ,  8-O ) :   0.1332 B(  3-C , 11-H ) :   0.8456 B(  4-C ,  5-C ) :   1.6268 
B(  4-C ,  6-N ) :  -0.1344 B(  4-C ,  8-O ) :   0.1575 B(  4-C ,  9-F ) :  -0.1150 
B(  4-C , 12-H ) :   0.7536 B(  5-C ,  6-N ) :   0.7368 B(  5-C ,  8-O ) :  -0.1532 
[...]
 289   0.0000       5.124531       139.4456 
 290   0.0000       5.197002       141.4176 
 291   0.0000       5.287391       143.8772 
 292   0.0000       5.370445       146.1372 
 293   0.0000       5.859360       159.4413 
 294   0.0000       6.335819       172.4064 
 295   0.0000       6.422633       174.7687 
 296   0.0000       6.549849       178.2304 
 297   0.0000       6.863046       186.7530 
 298   0.0000       7.977977       217.0918 
 299   0.0000      17.546146       477.4549 
 300   0.0000      17.547507       477.4919 
 301   0.0000      17.636159       479.9043 
 302   0.0000      23.701120       644.9403 
 303   0.0000      23.954526       651.8358 
 304   0.0000      24.018504       653.5767 
 305   0.0000      24.029994       653.8894 
 306   0.0000      24.136036       656.7749 
 307   0.0000      24.245690       659.7588 
 308   0.0000      35.449998       964.6435 
 309   0.0000      35.736459       972.4385 
 310   0.0000      49.921375      1358.4297 
 311   0.0000      50.036917      1361.5737 
 312   0.0000      66.806320      1817.8924 
 313   0.0000     188.966939      5142.0518 

--------------------
FRAGMENT INFORMATION
--------------------
Fragment  1:    0   1   2   3   4   5 
Fragment  2:    6   7   8   9  10  11  12 
Fragment  3:   13  14  15  16 
Fragment  4:   17 


                    ********************************
                    * MULLIKEN POPULATION ANALYSIS *
                    ********************************

-------------------------
MULLIKEN FRAGMENT CHARGES
-------------------------
 Fragment   0 :  -0.466470
 Fragment   1 :   0.466162
 Fragment   2 :  -0.025509
 Fragment   3 :  -0.974183
Sum of fragment charges:   -1.0000000

---------------------------------
MULLIKEN FRAGMENT OVERLAP CHARGES
---------------------------------
                  0          1          2          3    
      0      18.831855   0.438678  -0.000069  -0.000282
      1       0.438678  35.100026   0.000000   0.000268
      2      -0.000069   0.000000  11.650875  -0.683156
      3      -0.000282   0.000268  -0.683156  17.315768

-----------------------
MULLIKEN ATOMIC CHARGES
-----------------------
   0 C :    0.008819
   1 N :   -0.183999
   2 C :   -0.293130
   3 C :   -0.307160
   4 C :    0.478897
   5 C :   -0.169896
   6 N :   -0.001580
   7 O :   -0.179525
   8 O :   -0.118278
   9 F :   -0.118375
  10 H :    0.284516
  11 H :    0.279733
  12 H :    0.319671
  13 C :   -0.405025
  14 H :    0.126287
  15 H :    0.126280
  16 H :    0.126950
  17 S :   -0.974183
Sum of atomic charges:   -1.0000000

--------------------------------
MULLIKEN REDUCED ORBITAL CHARGES
--------------------------------
  0 C s       :     3.226333  s :     3.226333
      pz      :     0.670316  p :     2.594615
      px      :     0.975443
      py      :     0.948856
      dz2     :     0.057173  d :     0.170233
      dxz     :     0.050568
      dyz     :     0.029442
      dx2y2   :     0.014676
      dxy     :     0.018374
  1 N s       :     3.600470  s :     3.600470
      pz      :     1.150610  p :     3.548995
      px      :     1.246581
      py      :     1.151804
      dz2     :     0.008764  d :     0.034534
      dxz     :     0.008591
      dyz     :     0.005222
      dx2y2   :     0.006106
      dxy     :     0.005850
  2 C s       :     3.327429  s :     3.327429
      pz      :     0.824365  p :     2.876750
      px      :     1.182230
      py      :     0.870155
      dz2     :     0.025182  d :     0.088950
      dxz     :     0.033458
      dyz     :     0.015882
      dx2y2   :     0.007892
      dxy     :     0.006536
  3 C s       :     3.248831  s :     3.248831
      pz      :     1.153232  p :     3.002717
      px      :     0.881680
      py      :     0.967805
      dz2     :     0.015876  d :     0.055612
      dxz     :     0.018411
      dyz     :     0.005670
      dx2y2   :     0.008183
      dxy     :     0.007472
  4 C s       :     2.440519  s :     2.440519
      pz      :     0.930680  p :     3.020930
      px      :     1.241054
      py      :     0.849196
      dz2     :     0.017050  d :     0.059654
      dxz     :     0.016316
      dyz     :     0.011355
      dx2y2   :     0.007723
      dxy     :     0.007211
  5 C s       :     3.342613  s :     3.342613
      pz      :     1.121423  p :     2.753668
      px      :     0.502086
      py      :     1.130159
      dz2     :     0.013337  d :     0.073615
      dxz     :     0.030695
      dyz     :     0.010361
      dx2y2   :     0.011125
      dxy     :     0.008098
  6 N s       :     3.477283  s :     3.477283
      pz      :     1.049238  p :     3.386831
      px      :     1.228158
      py      :     1.109435
      dz2     :     0.037087  d :     0.137466
      dxz     :     0.044584
      dyz     :     0.027890
      dx2y2   :     0.012449
      dxy     :     0.015456
  7 O s       :     3.812784  s :     3.812784
      pz      :     1.028706  p :     4.348674
      px      :     1.843027
      py      :     1.476942
      dz2     :     0.009698  d :     0.018066
      dxz     :     0.003220
      dyz     :     0.004974
      dx2y2   :     0.000106
      dxy     :     0.000069
  8 O s       :     3.779781  s :     3.779781
      pz      :     1.602226  p :     4.318543
      px      :     1.281870
      py      :     1.434447
      dz2     :     0.002240  d :     0.019953
      dxz     :     0.007029
      dyz     :     0.001775
      dx2y2   :     0.004635
      dxy     :     0.004273
  9 F s       :     3.917967  s :     3.917967
      pz      :     1.398752  p :     5.195173
      px      :     1.917933
      py      :     1.878487
      dz2     :     0.003050  d :     0.005235
      dxz     :     0.000973
      dyz     :     0.001172
      dx2y2   :     0.000030
      dxy     :     0.000010
 10 H s       :     0.692186  s :     0.692186
      pz      :     0.004491  p :     0.023298
      px      :     0.014486
      py      :     0.004321
 11 H s       :     0.695077  s :     0.695077
      pz      :     0.016420  p :     0.025190
      px      :     0.003786
      py      :     0.004984
 12 H s       :     0.654498  s :     0.654498
      pz      :     0.007642  p :     0.025830
      px      :     0.013712
      py      :     0.004477
 13 C s       :     3.265944  s :     3.265944
      pz      :     1.060716  p :     3.086467
      px      :     1.050830
      py      :     0.974920
      dz2     :     0.009014  d :     0.052614
      dxz     :     0.004602
      dyz     :     0.015610
      dx2y2   :     0.014555
      dxy     :     0.008833
 14 H s       :     0.851001  s :     0.851001
      pz      :     0.011182  p :     0.022712
      px      :     0.005179
      py      :     0.006351
 15 H s       :     0.850983  s :     0.850983
      pz      :     0.004802  p :     0.022737
      px      :     0.013268
      py      :     0.004667
 16 H s       :     0.850329  s :     0.850329
      pz      :     0.009534  p :     0.022721
      px      :     0.006289
      py      :     0.006898
 17 S s       :     6.024003  s :     6.024003
      pz      :     3.995571  p :    10.918775
      px      :     3.893784
      py      :     3.029419
      dz2     :     0.005602  d :     0.031406
      dxz     :     0.000313
      dyz     :     0.004226
      dx2y2   :     0.012642
      dxy     :     0.008623


                     *******************************
                     * LOEWDIN POPULATION ANALYSIS *
                     *******************************

------------------------
LOEWDIN FRAGMENT CHARGES
------------------------
 Fragment   0 :   0.040017
 Fragment   1 :  -0.040050
 Fragment   2 :  -0.355221
 Fragment   3 :  -0.644746

----------------------------
LOEWDIN FRAGMENT BOND ORDERS
----------------------------
                  0          1          2          3    
      0      57.186399   6.721507   0.000052   0.000221
      1       6.721507  44.210112   0.000010   0.000073
      2       0.000052   0.000010  15.419573   1.742439
      3       0.000221   0.000073   1.742439  16.644746

----------------------
LOEWDIN ATOMIC CHARGES
----------------------
   0 C :    0.083237
   1 N :   -0.080346
   2 C :    0.058153
   3 C :   -0.032933
   4 C :    0.075114
   5 C :   -0.063207
   6 N :    0.202571
   7 O :   -0.224527
   8 O :   -0.197797
   9 F :   -0.088341
  10 H :    0.083773
  11 H :    0.085954
  12 H :    0.098316
  13 C :   -0.358451
  14 H :    0.001090
  15 H :    0.000965
  16 H :    0.001175
  17 S :   -0.644746

-------------------------------
LOEWDIN REDUCED ORBITAL CHARGES
-------------------------------
  0 C s       :     2.730802  s :     2.730802
      pz      :     0.852186  p :     2.834875
      px      :     1.094849
      py      :     0.887840
      dz2     :     0.121830  d :     0.351086
      dxz     :     0.104230
      dyz     :     0.052149
      dx2y2   :     0.037286
      dxy     :     0.035591
  1 N s       :     3.108715  s :     3.108715
      pz      :     1.300928  p :     3.906659
      px      :     1.432684
      py      :     1.173048
      dz2     :     0.019012  d :     0.064973
      dxz     :     0.018316
      dyz     :     0.009054
      dx2y2   :     0.010742
      dxy     :     0.007849
  2 C s       :     2.774378  s :     2.774378
      pz      :     1.042311  p :     2.973817
      px      :     1.092635
      py      :     0.838870
      dz2     :     0.064358  d :     0.193652
      dxz     :     0.072802
      dyz     :     0.030575
      dx2y2   :     0.015172
      dxy     :     0.010745
  3 C s       :     2.772389  s :     2.772389
      pz      :     1.079677  p :     3.131111
      px      :     1.096133
      py      :     0.955301
      dz2     :     0.035198  d :     0.129434
      dxz     :     0.047277
      dyz     :     0.008815
      dx2y2   :     0.022381
      dxy     :     0.015763
  4 C s       :     2.768304  s :     2.768304
      pz      :     1.074445  p :     3.021733
      px      :     1.105271
      py      :     0.842017
      dz2     :     0.042317  d :     0.134850
      dxz     :     0.040875
      dyz     :     0.022962
      dx2y2   :     0.016087
      dxy     :     0.012609
  5 C s       :     2.752447  s :     2.752447
      pz      :     1.090871  p :     3.128940
      px      :     0.956055
      py      :     1.082014
      dz2     :     0.039815  d :     0.181819
      dxz     :     0.073724
      dyz     :     0.020116
      dx2y2   :     0.030903
      dxy     :     0.017262
  6 N s       :     2.999832  s :     2.999832
      pz      :     1.218277  p :     3.531653
      px      :     1.231770
      py      :     1.081607
      dz2     :     0.079074  d :     0.265944
      dxz     :     0.090685
      dyz     :     0.044078
      dx2y2   :     0.026965
      dxy     :     0.025142
  7 O s       :     3.573903  s :     3.573903
      pz      :     1.278699  p :     4.619080
      px      :     1.850224
      py      :     1.490157
      dz2     :     0.020364  d :     0.031544
      dxz     :     0.004807
      dyz     :     0.006167
      dx2y2   :     0.000131
      dxy     :     0.000074
  8 O s       :     3.550177  s :     3.550177
      pz      :     1.709612  p :     4.612582
      px      :     1.450637
      py      :     1.452333
      dz2     :     0.003477  d :     0.035038
      dxz     :     0.014340
      dyz     :     0.002449
      dx2y2   :     0.009129
      dxy     :     0.005644
  9 F s       :     3.713898  s :     3.713898
      pz      :     1.539322  p :     5.367181
      px      :     1.937502
      py      :     1.890358
      dz2     :     0.004697  d :     0.007262
      dxz     :     0.001170
      dyz     :     0.001345
      dx2y2   :     0.000040
      dxy     :     0.000010
 10 H s       :     0.847609  s :     0.847609
      pz      :     0.014053  p :     0.068618
      px      :     0.042899
      py      :     0.011666
 11 H s       :     0.841850  s :     0.841850
      pz      :     0.047434  p :     0.072195
      px      :     0.011370
      py      :     0.013391
 12 H s       :     0.828101  s :     0.828101
      pz      :     0.022477  p :     0.073582
      px      :     0.039524
      py      :     0.011582
 13 C s       :     2.858268  s :     2.858268
      pz      :     1.118183  p :     3.393310
      px      :     1.121600
      py      :     1.153527
      dz2     :     0.018321  d :     0.106873
      dxz     :     0.008257
      dyz     :     0.031074
      dx2y2   :     0.030882
      dxy     :     0.018339
 14 H s       :     0.927151  s :     0.927151
      pz      :     0.035577  p :     0.071759
      px      :     0.015258
      py      :     0.020924
 15 H s       :     0.927266  s :     0.927266
      pz      :     0.013942  p :     0.071769
      px      :     0.043072
      py      :     0.014755
 16 H s       :     0.927062  s :     0.927062
      pz      :     0.029973  p :     0.071763
      px      :     0.018954
      py      :     0.022836
 17 S s       :     5.613801  s :     5.613801
      pz      :     3.936764  p :    10.993825
      px      :     3.858952
      py      :     3.198109
      dz2     :     0.006761  d :     0.037120
      dxz     :     0.000341
      dyz     :     0.004741
      dx2y2   :     0.015122
      dxy     :     0.010155


                      *****************************
                      * MAYER POPULATION ANALYSIS *
                      *****************************

  NA   - Mulliken gross atomic population
  ZA   - Total nuclear charge
  QA   - Mulliken gross atomic charge
  VA   - Mayer's total valence
  BVA  - Mayer's bonded valence
  FA   - Mayer's free valence

  ATOM       NA         ZA         QA         VA         BVA        FA
  0 C      5.9912     6.0000     0.0088     4.2670     4.2670    -0.0000
  1 N      7.1840     7.0000    -0.1840     2.7192     2.7192     0.0000
  2 C      6.2931     6.0000    -0.2931     4.0332     4.0332    -0.0000
  3 C      6.3072     6.0000    -0.3072     4.4653     4.4653    -0.0000
  4 C      5.5211     6.0000     0.4789     4.1292     4.1292     0.0000
  5 C      6.1699     6.0000    -0.1699     3.3919     3.3919    -0.0000
  6 N      7.0016     7.0000    -0.0016     4.0013     4.0013    -0.0000
  7 O      8.1795     8.0000    -0.1795     2.1170     2.1170    -0.0000
  8 O      8.1183     8.0000    -0.1183     2.1817     2.1817    -0.0000
  9 F      9.1184     9.0000    -0.1184     0.9234     0.9234     0.0000
 10 H      0.7155     1.0000     0.2845     0.8744     0.8744    -0.0000
 11 H      0.7203     1.0000     0.2797     0.9067     0.9067     0.0000
 12 H      0.6803     1.0000     0.3197     0.8410     0.8410    -0.0000
 13 C      6.4050     6.0000    -0.4050     3.5662     3.5662    -0.0000
 14 H      0.8737     1.0000     0.1263     0.9430     0.9430    -0.0000
 15 H      0.8737     1.0000     0.1263     0.9423     0.9423    -0.0000
 16 H      0.8731     1.0000     0.1269     0.9425     0.9425    -0.0000
 17 S     16.9742    16.0000    -0.9742     0.5911     0.5911    -0.0000

  Mayer bond orders larger than 0.100000
B(  0-C ,  1-N ) :   1.2987 B(  0-C ,  2-C ) :   0.1754 B(  0-C ,  3-C ) :   0.1669 
B(  0-C ,  4-C ) :   0.2804 B(  0-C ,  5-C ) :   1.2080 B(  0-C ,  6-N ) :  -0.1839 
B(  0-C ,  7-O ) :   0.1105 B(  0-C ,  8-O ) :  -0.1074 B(  0-C ,  9-F ) :   1.3437 
B(  1-N ,  2-C ) :   1.1660 B(  1-N ,  5-C ) :   0.1990 B(  2-C ,  3-C ) :   1.6668 
B(  2-C ,  5-C ) :   0.1081 B(  2-C , 10-H ) :   0.8853 B(  3-C ,  4-C ) :   1.4376 
B(  3-C ,  8-O ) :   0.1476 B(  3-C , 11-H ) :   0.8424 B(  4-C ,  5-C ) :   1.6124 
B(  4-C ,  8-O ) :   0.2329 B(  4-C ,  9-F ) :  -0.1239 B(  4-C , 12-H ) :   0.7216 
B(  5-C ,  6-N ) :   0.6514 B(  5-C ,  7-O ) :  -0.1240 B(  5-C ,  8-O ) :  -0.1959 
B(  5-C ,  9-F ) :  -0.3217 B(  5-C , 12-H ) :   0.1431 B(  6-N ,  7-O ) :   1.8329 
B(  6-N ,  8-O ) :   1.8471 B(  7-O ,  8-O ) :   0.2388 B( 13-C , 14-H ) :   0.9806 
B( 13-C , 15-H ) :   0.9818 B( 13-C , 16-H ) :   0.9830 B( 13-C , 17-S ) :   0.6210 


-------
TIMINGS
-------

Total SCF time: 0 days 0 hours 0 min 15 sec 

Total time                  ....      15.027 sec
Sum of individual times     ....      14.363 sec  ( 95.6%)

Fock matrix formation       ....      12.457 sec  ( 82.9%)
  Split-RI-J                ....       0.788 sec  (  6.3% of F)
  Chain of spheres X        ....       9.342 sec  ( 75.0% of F)
  XC integration            ....       1.200 sec  (  9.6% of F)
    Basis function eval.    ....       0.121 sec  ( 10.1% of XC)
    Density eval.           ....       0.113 sec  (  9.4% of XC)
    XC-Functional eval.     ....       0.252 sec  ( 21.0% of XC)
    XC-Potential eval.      ....       0.083 sec  (  6.9% of XC)
Diagonalization             ....       0.026 sec  (  0.2%)
Density matrix formation    ....       0.011 sec  (  0.1%)
Population analysis         ....       0.059 sec  (  0.4%)
Initial guess               ....       0.040 sec  (  0.3%)
Orbital Transformation      ....       0.000 sec  (  0.0%)
Orbital Orthonormalization  ....       0.022 sec  (  0.1%)
DIIS solution               ....       0.011 sec  (  0.1%)
SOSCF solution              ....       0.127 sec  (  0.8%)
Grid generation             ....       1.631 sec  ( 10.9%)

Maximum memory used throughout the entire SCF-calculation: 68.1 MB

-------------------------   --------------------
FINAL SINGLE POINT ENERGY      -990.264046676025
-------------------------   --------------------

                                *** OPTIMIZATION RUN DONE ***

                            ***************************************
                            *     ORCA property calculations      *
                            ***************************************

                                    ---------------------
                                    Active property flags
                                    ---------------------
   (+) Dipole Moment


------------------------------------------------------------------------------
                       ORCA ELECTRIC PROPERTIES CALCULATION
------------------------------------------------------------------------------

Dipole Moment Calculation                       ... on
Quadrupole Moment Calculation                   ... off
Polarizability Calculation                      ... off
GBWName                                         ... structure_opt.gbw
Electron density                                ... structure_opt.scfp
The origin for moment calculation is the CENTER OF MASS  = (-2.366108, -3.187515  3.393291)

-------------
DIPOLE MOMENT
-------------
                                X             Y             Z
Electronic contribution:      4.68739      25.06346       1.62950
Nuclear contribution   :     -1.79674     -16.45598       4.71000
                        -----------------------------------------
Total Dipole Moment    :      2.89065       8.60748       6.33950
                        -----------------------------------------
Magnitude (a.u.)       :     11.07402
Magnitude (Debye)      :     28.14791



--------------------
Rotational spectrum 
--------------------
 
Rotational constants in cm-1:     0.028778     0.006855     0.006386 
Rotational constants in MHz :   862.738748   205.509918   191.432826 

 Dipole components along the rotational axes: 
x,y,z [a.u.] :   -10.623120     2.085304     2.331233 
x,y,z [Debye]:   -27.001826     5.300421     5.925524 

 

Timings for individual modules:

Sum of individual times         ...     1230.295 sec (=  20.505 min)
GTO integral calculation        ...       80.381 sec (=   1.340 min)   6.5 %
SCF iterations                  ...      943.882 sec (=  15.731 min)  76.7 %
SCF Gradient evaluation         ...      204.619 sec (=   3.410 min)  16.6 %
Geometry relaxation             ...        1.412 sec (=   0.024 min)   0.1 %
                             ****ORCA TERMINATED NORMALLY****
TOTAL RUN TIME: 0 days 0 hours 21 minutes 46 seconds 557 msec
