
                                 *****************
                                 * O   R   C   A *
                                 *****************

                                            #,                                       
                                            ###                                      
                                            ####                                     
                                            #####                                    
                                            ######                                   
                                           ########,                                 
                                     ,,################,,,,,                         
                               ,,#################################,,                 
                          ,,##########################################,,             
                       ,#########################################, ''#####,          
                    ,#############################################,,   '####,        
                  ,##################################################,,,,####,       
                ,###########''''           ''''###############################       
              ,#####''   ,,,,##########,,,,          '''####'''          '####       
            ,##' ,,,,###########################,,,                        '##       
           ' ,,###''''                  '''############,,,                           
         ,,##''                                '''############,,,,        ,,,,,,###''
      ,#''                                            '''#######################'''  
     '                                                          ''''####''''         
             ,#######,   #######,   ,#######,      ##                                
            ,#'     '#,  ##    ##  ,#'     '#,    #''#        ######   ,####,        
            ##       ##  ##   ,#'  ##            #'  '#       #        #'  '#        
            ##       ##  #######   ##           ,######,      #####,   #    #        
            '#,     ,#'  ##    ##  '#,     ,#' ,#      #,         ##   #,  ,#        
             '#######'   ##     ##  '#######'  #'      '#     #####' # '####'        



                  #######################################################
                  #                        -***-                        #
                  #          Department of theory and spectroscopy      #
                  #    Directorship and core code : Frank Neese         #
                  #        Max Planck Institute fuer Kohlenforschung    #
                  #                Kaiser Wilhelm Platz 1               #
                  #                 D-45470 Muelheim/Ruhr               #
                  #                      Germany                        #
                  #                                                     #
                  #                  All rights reserved                #
                  #                        -***-                        #
                  #######################################################


                         Program Version 5.0.1 -  RELEASE  -


 With contributions from (in alphabetic order):
   Daniel Aravena         : Magnetic Suceptibility
   Michael Atanasov       : Ab Initio Ligand Field Theory (pilot matlab implementation)
   Alexander A. Auer      : GIAO ZORA, VPT2 properties, NMR spectrum
   Ute Becker             : Parallelization
   Giovanni Bistoni       : ED, misc. LED, open-shell LED, HFLD
   Martin Brehm           : Molecular dynamics
   Dmytro Bykov           : SCF Hessian
   Vijay G. Chilkuri      : MRCI spin determinant printing, contributions to CSF-ICE
   Dipayan Datta          : RHF DLPNO-CCSD density
   Achintya Kumar Dutta   : EOM-CC, STEOM-CC
   Dmitry Ganyushin       : Spin-Orbit,Spin-Spin,Magnetic field MRCI
   Miquel Garcia          : C-PCM and meta-GGA Hessian, CC/C-PCM, Gaussian charge scheme
   Yang Guo               : DLPNO-NEVPT2, F12-NEVPT2, CIM, IAO-localization
   Andreas Hansen         : Spin unrestricted coupled pair/coupled cluster methods
   Benjamin Helmich-Paris : MC-RPA, TRAH-SCF, COSX integrals
   Lee Huntington         : MR-EOM, pCC
   Robert Izsak           : Overlap fitted RIJCOSX, COSX-SCS-MP3, EOM
   Marcus Kettner         : VPT2
   Christian Kollmar      : KDIIS, OOCD, Brueckner-CCSD(T), CCSD density, CASPT2, CASPT2-K
   Simone Kossmann        : Meta GGA functionals, TD-DFT gradient, OOMP2, MP2 Hessian
   Martin Krupicka        : Initial AUTO-CI
   Lucas Lang             : DCDCAS
   Marvin Lechner         : AUTO-CI (C++ implementation), FIC-MRCC
   Dagmar Lenk            : GEPOL surface, SMD
   Dimitrios Liakos       : Extrapolation schemes; Compound Job, initial MDCI parallelization
   Dimitrios Manganas     : Further ROCIS development; embedding schemes
   Dimitrios Pantazis     : SARC Basis sets
   Anastasios Papadopoulos: AUTO-CI, single reference methods and gradients
   Taras Petrenko         : DFT Hessian,TD-DFT gradient, ASA, ECA, R-Raman, ABS, FL, XAS/XES, NRVS
   Peter Pinski           : DLPNO-MP2, DLPNO-MP2 Gradient
   Christoph Reimann      : Effective Core Potentials
   Marius Retegan         : Local ZFS, SOC
   Christoph Riplinger    : Optimizer, TS searches, QM/MM, DLPNO-CCSD(T), (RO)-DLPNO pert. Triples
   Tobias Risthaus        : Range-separated hybrids, TD-DFT gradient, RPA, STAB
   Michael Roemelt        : Original ROCIS implementation
   Masaaki Saitow         : Open-shell DLPNO-CCSD energy and density
   Barbara Sandhoefer     : DKH picture change effects
   Avijit Sen             : IP-ROCIS
   Kantharuban Sivalingam : CASSCF convergence, NEVPT2, FIC-MRCI
   Bernardo de Souza      : ESD, SOC TD-DFT
   Georgi Stoychev        : AutoAux, RI-MP2 NMR, DLPNO-MP2 response
   Willem Van den Heuvel  : Paramagnetic NMR
   Boris Wezisla          : Elementary symmetry handling
   Frank Wennmohs         : Technical directorship


 We gratefully acknowledge several colleagues who have allowed us to
 interface, adapt or use parts of their codes:
   Stefan Grimme, W. Hujo, H. Kruse, P. Pracht,  : VdW corrections, initial TS optimization,
                  C. Bannwarth, S. Ehlert          DFT functionals, gCP, sTDA/sTD-DF
   Ed Valeev, F. Pavosevic, A. Kumar             : LibInt (2-el integral package), F12 methods
   Garnet Chan, S. Sharma, J. Yang, R. Olivares  : DMRG
   Ulf Ekstrom                                   : XCFun DFT Library
   Mihaly Kallay                                 : mrcc  (arbitrary order and MRCC methods)
   Jiri Pittner, Ondrej Demel                    : Mk-CCSD
   Frank Weinhold                                : gennbo (NPA and NBO analysis)
   Christopher J. Cramer and Donald G. Truhlar   : smd solvation model
   Lars Goerigk                                  : TD-DFT with DH, B97 family of functionals
   V. Asgeirsson, H. Jonsson                     : NEB implementation
   FAccTs GmbH                                   : IRC, NEB, NEB-TS, DLPNO-Multilevel, CI-OPT
                                                   MM, QMMM, 2- and 3-layer-ONIOM, Crystal-QMMM,
                                                   LR-CPCM, SF, NACMEs, symmetry and pop. for TD-DFT,
                                                   nearIR, NL-DFT gradient (VV10), updates on ESD,
                                                   ML-optimized integration grids
   S Lehtola, MJT Oliveira, MAL Marques          : LibXC Library
   Liviu Ungur et al                             : ANISO software


 Your calculation uses the libint2 library for the computation of 2-el integrals
 For citations please refer to: http://libint.valeyev.net

 Your ORCA version has been built with support for libXC version: 5.1.0
 For citations please refer to: https://tddft.org/programs/libxc/

 This ORCA versions uses:
   CBLAS   interface :  Fast vector & matrix operations
   LAPACKE interface :  Fast linear algebra routines
   SCALAPACK package :  Parallel linear algebra routines
   Shared memory     :  Shared parallel matrices
   BLAS/LAPACK       :  OpenBLAS 0.3.15  USE64BITINT DYNAMIC_ARCH NO_AFFINITY SkylakeX SINGLE_THREADED
        Core in use  :  SkylakeX
   Copyright (c) 2011-2014, The OpenBLAS Project




***************************************
The coordinates will be read from file: structure_opt.xyz
***************************************


Your calculation utilizes the atom-pairwise dispersion correction
based on tight binding partial charges (D4)
Cite in your paper:
E.Caldeweyher, C.Bannwarth, S.Grimme, J.Chem.Phys., (2017), 147, 034112.
E.Caldeweyher, S.Ehlert, A.Hansen, H.Neugebauer, S.Grimme, J.Chem.Phys., (2018), in progress.
   

Your calculation utilizes the SMD solvation module
Please cite in your paper:
A.V. Marenich, C.J. Cramer, D.G. Truhlar J. Phys. Chem. B, 113, (2009), 6378 

XCFun DFT library Copyright 2009-2010 Ulf Ekstrom and contributors.
See http://admol.org/xcfun for more information.
This is free software; see the source code for copying conditions.
There is ABSOLUTELY NO WARRANTY; not even for MERCHANTABILITY or FITNESS FOR A PARTICULAR PURPOSE.
For details see the documentation.
Scientific users of this library should cite U. Ekstrom, L. Visscher, R. Bast, A. J. Thorvaldsen and K. Ruud;
J.Chem.Theor.Comp. 2010, DOI: 10.1021/ct100117s
XCFun Version 0.99 

Your calculation utilizes a Nudged-Elastic-Band implementation
 by V.Asgeirsson, C. Riplinger & H. Jonsson
Please cite in your paper:
 V. Asgeirsson et al., in prep. (2019)
   

================================================================================

----- Orbital basis set information -----
Your calculation utilizes the basis: 6-311++G**
   H, Li - Ne  : R. Krishnan, J. S. Binkley, R. Seeger and J. A. Pople, J. Chem. Phys. 72, 650 (1980).
   Na - Ar     : A. D. McLean and G. S. Chandler J. Chem. Phys. 72, 5639, (1980).
   K  - Ca     : J.-P. Blaudeau, M. P. McGrath, L. A. Curtiss and L. Radom, J. Chem. Phys. 107, 5016 (1997).
   Ga - Kr     : L. A. Curtiss, M. P. McGrath, J.-P. Blandeau, N. E. Davis, R. C. Binning and L. Radom, J. Chem. Phys. 103, 6104 (1995).
   Pol./Diff.
   H, Li - Cl  : T. Clark, J. Chandrasekhar and P. v. R. Schleyer, J. Comp. Chem. 4, 294 (1983).
   H - Ne      : M. J. Frisch, J. A. Pople and J. S. Binkley, J. Chem. Phys. 80, 3265 (1984).

----- AuxJ basis set information -----
Your calculation utilizes the auxiliary basis: def2/J
   F. Weigend, Phys. Chem. Chem. Phys. 8, 1057 (2006).

================================================================================
                                        WARNINGS
                       Please study these warnings very carefully!
================================================================================


WARNING: The environment variable RSH_COMMAND is not set!
  ===> : All Displacements for the Numerical Hessian calculation
         will be started on localhost

WARNING: Geometry Optimization
  ===> : Switching off AutoStart
         For restart on a previous wavefunction, please use MOREAD

INFO   : the flag for use of the SHARK integral package has been found!

================================================================================
                                       INPUT FILE
================================================================================
NAME = TS_search_opt_without_h.inp
|  1> !wb97x 6-311++G** D4 NEB-TS OPT NUMFREQ CPCM(WATER)
|  2> %maxcore  3500
|  3> %pal
|  4> nprocs 24
|  5> end
|  6> %cpcm
|  7> smd true
|  8> SMDsolvent "water"
|  9> end
| 10> %geom
| 11> MaxIter 1000   # allows for n optimization cycles
| 12> EnforceStrictConvergence False
| 13> end
| 14> %NEB NEB_END_XYZFILE "2f3_prod_opt.xyz" END
| 15> * XYZfile -1 1 structure_opt.xyz
| 16> 
| 17>                          ****END OF INPUT****
================================================================================


------------------------------------------------------------------------------- 
                         Nudged Elastic Band Calculation                       
------------------------------------------------------------------------------- 

Number of images (incl. end points)     ....  10
Number of intermediate images           ....  8
Number of optimized images              ....  8
Optimization of end points before NEB   ....  NO
Use existing gbw files for MO input     ....  NO
Number of atoms                         ....  18
Number of (active) degrees of freedom   ....  54
Constrained atoms                       ....  None

-----------------------------------------
  REACTANT (ANGSTROEM)
-----------------------------------------
C      0.002126     0.000451     1.849117 
N      1.124546    -0.187979     2.472700 
C      1.196414    -0.201799     3.803570 
C      0.088904    -0.020071     4.601185 
C     -1.117664     0.182240     3.962798 
C     -1.190802     0.196575     2.579094 
N     -2.453969     0.409206     1.920017 
O     -2.537385     0.426351     0.674954 
O     -3.464288     0.575744     2.576941 
F      0.003845     0.003862     0.499122 
H      2.181588    -0.365061     4.226572 
H      0.157929    -0.033833     5.680807 
H     -2.016574     0.330277     4.540115 
C     -2.715309    -8.366996     0.004540 
H     -2.449157    -8.843480    -0.943090 
H     -3.800592    -8.407355     0.132072 
H     -2.240253    -8.915145     0.822909 
S     -2.158360    -6.651987     0.009576 

-----------------------------------------
  PRODUCT (ANGSTROEM)
-----------------------------------------
C     -0.006655     0.014080     1.789576 
N      1.150760    -0.163122     2.425247 
C      1.177726    -0.139964     3.759145 
C      0.054738     0.057580     4.546999 
C     -1.158972     0.233636     3.911162 
C     -1.178720     0.217442     2.525234 
N     -2.493686     0.427964     1.904940 
O     -2.584738     1.164910     0.947848 
O     -3.439094    -0.145340     2.414303 
F      3.139899     2.499865     0.919104 
H      2.152169    -0.281946     4.215772 
H      0.130494     0.071637     5.627108 
H     -2.077395     0.389730     4.465403 
C      0.049505     1.625975    -0.482258 
H     -0.875798     2.113075    -0.187252 
H      0.131238     1.624494    -1.570971 
H      0.921382     2.132605    -0.060262 
S      0.064147    -0.119619     0.009902 



----------------------
NEB settings
----------------------
Method type                             ....  climbing image
Threshold for climbing image            ....  2.00e-02 Eh/Bohr 
Free endpoints                          ....  off 
Tangent type                            ....  improved 
Number of intermediate images           ....  8 
Number of images free to move           ....  8 
Spring type for image distribution      ....  distance between adjacent images 
Spring constant                         ....  energy weighted (0.0100 -to- 0.1000) Eh/Bohr^2 
Spring force perp. to the path          ....  none 
Generation of initial path              ....  image dependent pair potential 
Initial path via TS guess               ....  off 

Minimization of RMSD: Rotation          ....  always 
Minimization of RMSD: Translation type  ....  centroid 
Center fixed to origin                  ....  true 
Remove external force                   ....  true 

Reparametrization of the path           ....  off 
Convergence thresholds:
Convergence monitored for               ....  all images
Scaling factor                          ....  10.00

Convergence parameters for regular images:
               Max(|Fp|)                ....  2.00e-02 Eh/Bohr
               RMS(Fp)                  ....  1.00e-02 Eh/Bohr

Convergence parameters for climbing image:
               Max(|F|)                 ....  2.00e-03 Eh/Bohr
               RMS(F)                   ....  1.00e-03 Eh/Bohr
Optimization method:
Method                                  ....  L-BFGS
Max. iterations                         ....  500 
Step size                               ....  1.00 
Maximum allowed step size               ....  0.10 Bohr

LBFGS parameters: 
               Memory                   ....  20 
               Initial step size        ....  0.0010 
               Estimate curvature       ....  YES 
               Reset on maxmove         ....  YES 
               Reparam. on reset        ....  NO 
Generation of  the initial path:
Minimize RMSD between reactant and product configurations     .... done
       RMSD before minimization         ....  6.0186 Bohr
       RMSD after minimization          ....  3.2788 Bohr
Performing linear interpolation         ....  done
Interpolation using                     ....  IDPP (Image Dependent Pair Potential)
IDPP-Settings:
       Remove global transl. and rot.   ...   true
       Convergence tolerance            ....  0.0100 1/Ang.^3
       Max. numer of iterations         ....    7000
       Spring constant                  ....  1.0000 1/Ang.^4
       Time step                        ....  0.0100 fs
       Max. movement per iteration      ....  0.0500 Ang.
       Full print                       ....  false 
idpp initial path generation successfully converged in 123 iterations
Displacement along initial path:             25.1616 Bohr
Writing initial trajectory to file      ....  TS_search_opt_without_h_initial_path_trj.xyz



----------------------
NEB OPTIMIZATION      
----------------------

Following output files will be written:
Energy profile during opt. written to    ....  TS_search_opt_without_h.interp
Optimization log-file                    ....  TS_search_opt_without_h.NEB.log
Current trajectory will be written to    ....  TS_search_opt_without_h_MEP_trj.xyz
       and to allxyz file                ....  TS_search_opt_without_h_MEP.allxyz
       and individual images to xyz file ....  TS_search_opt_without_h_im{NIm}.xyz
Trajectory history will be written to    ....  TS_search_opt_without_h_MEP_ALL_trj.xyz
Converged CI will be written to          ....  TS_search_opt_without_h_NEB-CI_converged.xyz
Converged TS will be written to          ....  TS_search_opt_without_h_NEB-TS_converged.xyz

Single point energy and gradient calculation of reactant and
product configurations (have to be performed only once)
Properties of fixed NEB end points:
               Reactant:
                         E               ....   -990.266450 Eh
                         RMS(F)          ....      0.011295 Eh/Bohr
                         MAX(|F|)        ....      0.041906 Eh/Bohr
      Warning: Reactant seems to be less converged than convergence tolerances.
               You might want to use free end NEB or preopt_ends true.
               Product:
                         E               ....   -990.305454 Eh
                         RMS(F)          ....      0.001296 Eh/Bohr
                         MAX(|F|)        ....      0.004951 Eh/Bohr



Starting iterations:

Optim.  Iteration  HEI  E(HEI)-E(0)  max(|Fp|)   RMS(Fp)    dS
Switch-on CI threshold               0.020000 
   LBFGS     0      4    0.180843    0.107527   0.018485  25.1616       
   LBFGS     1      5    0.158136    0.078885   0.009416  25.1562       
   LBFGS     2      4    0.158285    0.101654   0.012674  25.1541       
   LBFGS     3      4    0.156032    0.071173   0.009320  25.1464       
   LBFGS     4      4    0.157255    0.086855   0.011327  25.1509       
   LBFGS     5      4    0.160358    0.113411   0.012955  25.1683       
   LBFGS     6      4    0.149295    0.059643   0.007001  25.1778       
   LBFGS     7      4    0.151838    0.094832   0.010899  25.1920       
   LBFGS     8      4    0.152599    0.103324   0.013214  25.2198       
   LBFGS     9      4    0.147804    0.048979   0.006344  25.2228       
   LBFGS    10      5    0.148195    0.052300   0.007391  25.2355       
   LBFGS    11      4    0.149625    0.066356   0.009092  25.2641       
   LBFGS    12      4    0.156187    0.151472   0.014209  25.2958       
   LBFGS    13      5    0.147843    0.051621   0.008014  25.3059       
   LBFGS    14      5    0.146712    0.038427   0.006808  25.3400       
   LBFGS    15      5    0.147688    0.058404   0.008531  25.3664       
   LBFGS    16      5    0.148075    0.063388   0.009562  25.4045       
   LBFGS    17      5    0.146902    0.048456   0.007548  25.4300       
   LBFGS    18      5    0.145913    0.034221   0.006099  25.4472       
   LBFGS    19      5    0.145722    0.032435   0.006002  25.4994       
   LBFGS    20      5    0.145800    0.037074   0.007125  25.5378       
   LBFGS    21      5    0.146022    0.041257   0.007775  25.5930       
   LBFGS    22      5    0.145959    0.044521   0.008094  25.6690       
   LBFGS    23      5    0.145062    0.036742   0.005626  25.6996       
   LBFGS    24      5    0.144913    0.027676   0.004901  25.7251       
   LBFGS    25      5    0.144723    0.042811   0.005700  25.8041       
   LBFGS    26      4    0.145467    0.061421   0.005611  25.8381       
   LBFGS    27      5    0.144446    0.029729   0.004977  25.8721       
   LBFGS    28      5    0.144441    0.038922   0.005807  25.9598       
   LBFGS    29      5    0.144071    0.023659   0.004509  25.9928       
   LBFGS    30      5    0.143868    0.025590   0.004292  26.0252       
   LBFGS    31      5    0.143528    0.025494   0.003924  26.1102       
   LBFGS    32      5    0.143328    0.030347   0.003956  26.1540       
   LBFGS    33      5    0.143182    0.033408   0.004570  26.2163       
   LBFGS    34      5    0.142871    0.041301   0.004895  26.3077       
   LBFGS    35      5    0.142566    0.021396   0.003670  26.3337       
   LBFGS    36      4    0.142338    0.018681   0.003104  26.3566       

Image  4 will be converted to a climbing image in the next iteration (max(|Fp|) < 0.0200) 

Optim.  Iteration  CI   E(CI)-E(0)   max(|Fp|)   RMS(Fp)    dS     max(|FCI|)   RMS(FCI)
Convergence thresholds               0.020000   0.010000            0.002000    0.001000 
   LBFGS    37      4    0.142243    0.018825   0.002516  26.3634    0.010995    0.002122       
   LBFGS    38      4    0.142015    0.024448   0.004010  26.4469    0.015430    0.003717       
   LBFGS    39      4    0.141935    0.040688   0.005184  26.5419    0.021863    0.005063       

Possible intermediate minimum found at image(s): 1 
  => have a look at the .interp file.
  => it is often a good idea to divide the path calculation into smaller fragments. 

   LBFGS    40      4    0.141382    0.015430   0.002649  26.5654    0.016950    0.003771       
   LBFGS    41      4    0.141143    0.015101   0.002348  26.5843    0.011413    0.002646       
   LBFGS    42      4    0.141219    0.019879   0.003444  26.6889    0.029178    0.007481       
   LBFGS    43      4    0.140823    0.012420   0.001846  26.7007    0.029438    0.005914       
   LBFGS    44      4    0.140399    0.011931   0.001998  26.7150    0.017572    0.003871       
   LBFGS    45      4    0.139860    0.030334   0.004118  26.8168    0.012421    0.004387       
   LBFGS    46      4    0.139559    0.041631   0.005412  26.9460    0.026048    0.006882       
   LBFGS    47      4    0.139417    0.009251   0.001951  26.9625    0.035630    0.007413       
   LBFGS    48      4    0.138583    0.007832   0.001762  26.9708    0.012622    0.003121       
   LBFGS    49      4    0.138669    0.010186   0.001891  26.9817    0.020060    0.004992       
   LBFGS    50      4    0.139165    0.031498   0.004241  27.0618    0.045693    0.010880       
   LBFGS    51      4    0.137735    0.008673   0.001810  27.0707    0.021974    0.004526       
   LBFGS    52      4    0.137493    0.005954   0.001496  27.0801    0.013116    0.003029       
   LBFGS    53      4    0.137231    0.014023   0.002295  27.1213    0.012743    0.002723       
   LBFGS    54      4    0.136913    0.032779   0.004153  27.2314    0.018918    0.005349       
   LBFGS    55      4    0.136488    0.045496   0.005392  27.3556    0.027866    0.007060       
   LBFGS    56      4    0.136390    0.011658   0.002110  27.3497    0.034929    0.007304       
   LBFGS    57      4    0.135481    0.005520   0.001575  27.3426    0.011802    0.002344       
   LBFGS    58      4    0.135457    0.011674   0.001637  27.3373    0.011593    0.003224       
   LBFGS    59      4    0.135368    0.020472   0.002860  27.3336    0.022784    0.005841       
   LBFGS    60      4    0.134966    0.028122   0.004321  27.3762    0.036645    0.008624       
   LBFGS    61      4    0.133897    0.038946   0.005418  27.4718    0.043105    0.009963       
   LBFGS    62      4    0.134724    0.016996   0.003312  27.5593    0.051994    0.011432       
   LBFGS    63      4    0.131991    0.007471   0.001674  27.5931    0.008837    0.002369       
   LBFGS    64      4    0.131808    0.006651   0.001352  27.6221    0.008651    0.002545       
   LBFGS    65      4    0.131506    0.007280   0.001595  27.6569    0.010383    0.003045       
   LBFGS    66      4    0.130562    0.017216   0.002511  27.7588    0.028151    0.006415       
   LBFGS    67      4    0.127804    0.015233   0.003021  27.8962    0.013913    0.004005       
   LBFGS    68      4    0.127672    0.015006   0.002882  27.8413    0.021503    0.004953       
   LBFGS    69      4    0.126997    0.007649   0.001737  27.8026    0.007263    0.002421       
   LBFGS    70      4    0.126360    0.008178   0.001520  27.7609    0.007233    0.002232       

Possible intermediate minimum found at image(s): 1 
  => have a look at the .interp file.
  => it is often a good idea to divide the path calculation into smaller fragments. 

   LBFGS    71      4    0.125622    0.011081   0.001902  27.7369    0.013448    0.003546       
   LBFGS    72      4    0.124118    0.018178   0.002714  27.7212    0.022590    0.005446       
   LBFGS    73      4    0.123798    0.013649   0.002299  27.7482    0.019674    0.005012       
   LBFGS    74      4    0.123266    0.008911   0.001771  27.7660    0.012834    0.003427       
   LBFGS    75      4    0.122008    0.009296   0.001718  27.8150    0.007674    0.002424       
   LBFGS    76      4    0.120754    0.014551   0.002480  27.8452    0.007931    0.003043       
   LBFGS    77      4    0.118533    0.026422   0.003721  27.8942    0.011725    0.004399       
   LBFGS    78      4    0.118037    0.019398   0.002656  27.8714    0.008673    0.002952       
   LBFGS    79      4    0.117731    0.015882   0.002278  27.8511    0.008741    0.003060       
   LBFGS    80      4    0.116063    0.012430   0.002055  27.7894    0.009505    0.003251       
   LBFGS    81      4    0.115639    0.016021   0.002332  27.7947    0.009185    0.003535       
   LBFGS    82      4    0.115190    0.012164   0.002102  27.7987    0.009270    0.003462       
   LBFGS    83      4    0.112512    0.009931   0.001868  27.8188    0.009703    0.002869       
   LBFGS    84      4    0.111827    0.025176   0.003243  27.7989    0.017547    0.004641       
   LBFGS    85      4    0.110723    0.016722   0.002630  27.7855    0.015026    0.003977       
   LBFGS    86      4    0.107752    0.011211   0.002102  27.7751    0.010236    0.002905       
   LBFGS    87      4    0.106610    0.029625   0.004005  27.8177    0.013152    0.004522       
   LBFGS    88      4    0.105188    0.011220   0.002058  27.8404    0.010521    0.003080       
   LBFGS    89      4    0.102910    0.017868   0.002661  27.8703    0.010467    0.003273       
   LBFGS    90      4    0.099704    0.029942   0.004182  27.9132    0.015164    0.004656       
   LBFGS    91      4    0.098951    0.027028   0.003921  27.8949    0.010715    0.004301       
   LBFGS    92      4    0.098232    0.018754   0.002883  27.8838    0.010702    0.003781       
   LBFGS    93      4    0.095587    0.013991   0.002204  27.8683    0.010757    0.003253       
   LBFGS    94      4    0.093678    0.027330   0.004506  27.8981    0.021110    0.006009       
   LBFGS    95      4    0.090778    0.016384   0.003181  27.9313    0.011680    0.004165       
   LBFGS    96      4    0.087270    0.014455   0.002638  27.9759    0.011824    0.003658       
   LBFGS    97      4    0.085102    0.024968   0.003314  27.9859    0.015965    0.004584       
   LBFGS    98      4    0.082035    0.024711   0.003554  28.0275    0.012753    0.004691       
   LBFGS    99      4    0.079458    0.018557   0.003105  28.0589    0.011960    0.004464       
   LBFGS   100      4    0.074005    0.013402   0.002992  28.1394    0.011634    0.004380       
   LBFGS   101      4    0.071673    0.032817   0.005060  28.1599    0.025831    0.006355       

Possible intermediate minimum found at image(s): 1 
  => have a look at the .interp file.
  => it is often a good idea to divide the path calculation into smaller fragments. 

   LBFGS   102      4    0.069321    0.013835   0.002879  28.1793    0.011566    0.004393       
   LBFGS   103      4    0.063497    0.020310   0.003580  28.2695    0.011420    0.005218       
   LBFGS   104      4    0.061202    0.035946   0.005125  28.3166    0.027139    0.007004       
   LBFGS   105      4    0.058062    0.015067   0.003236  28.3611    0.015313    0.005375       
   LBFGS   106      4    0.050812    0.018926   0.003167  28.4758    0.013533    0.005239       
   LBFGS   107      4    0.041720    0.031636   0.004645  28.6490    0.014416    0.005871       
   LBFGS   108      4    0.040059    0.038786   0.005203  28.6451    0.017284    0.005911       
   LBFGS   109      4    0.038568    0.018829   0.003018  28.6571    0.012667    0.005114       
   LBFGS   110      4    0.034150    0.018195   0.003088  28.7386    0.012104    0.004632       
   LBFGS   111      4    0.029678    0.026119   0.004158  28.8575    0.011208    0.004801       
   LBFGS   112      4    0.023671    0.035073   0.005278  29.0784    0.013047    0.005155       
   LBFGS   113      4    0.022243    0.039150   0.005572  29.0954    0.012889    0.005150       
   LBFGS   114      4    0.020756    0.023602   0.003590  29.1236    0.011331    0.004691       
   LBFGS   115      5    0.019241    0.015135   0.002631  29.1923    0.009353    0.003614       
   LBFGS   116      5    0.017004    0.036366   0.004816  29.3656    0.008836    0.003464       
   LBFGS   117      5    0.014467    0.047855   0.006485  29.5813    0.010240    0.003701       
   LBFGS   118      5    0.013646    0.045413   0.006247  29.5604    0.008367    0.003191       
   LBFGS   119      5    0.012753    0.012000   0.002662  29.6207    0.008335    0.002730       
   LBFGS   120      3    0.013983    0.026142   0.002693  29.7201    0.008161    0.002737       
   LBFGS   121      3    0.013054    0.035669   0.002863  29.8203    0.008613    0.002988       
   LBFGS   122      3    0.012990    0.021802   0.002847  29.8102    0.011566    0.003441       
   LBFGS   123      3    0.012758    0.023360   0.003178  29.9194    0.007926    0.002769       
   LBFGS   124      3    0.012801    0.051118   0.004600  30.0124    0.011550    0.003630       
   LBFGS   125      3    0.012671    0.036289   0.003463  30.0972    0.010655    0.003017       
   LBFGS   126      3    0.012484    0.039057   0.003056  30.3270    0.008066    0.002346       
   LBFGS   127      3    0.012440    0.018367   0.002311  30.3577    0.007289    0.002420       
   LBFGS   128      3    0.012320    0.024845   0.002224  30.4092    0.005535    0.002130       
   LBFGS   129      3    0.012158    0.027683   0.002868  30.5472    0.007043    0.002334       
   LBFGS   130      3    0.012059    0.038321   0.003372  30.5686    0.005371    0.002480       
   LBFGS   131      3    0.011937    0.016457   0.002204  30.6095    0.005859    0.002101       
   LBFGS   132      3    0.011701    0.026649   0.002290  30.7192    0.005586    0.001878       

Possible intermediate minimum found at image(s): 1 
  => have a look at the .interp file.
  => it is often a good idea to divide the path calculation into smaller fragments. 

   LBFGS   133      3    0.011326    0.029978   0.003355  30.9103    0.006804    0.002095       
   LBFGS   134      3    0.011210    0.026068   0.002521  30.9280    0.004310    0.001911       
   LBFGS   135      3    0.011094    0.012155   0.001602  30.9532    0.003406    0.001539       
   LBFGS   136      3    0.010666    0.021054   0.002711  31.1615    0.004229    0.001893       
   LBFGS   137      3    0.010324    0.025199   0.002839  31.3030    0.003502    0.001894       
   LBFGS   138      3    0.009739    0.033152   0.003336  31.5762    0.004547    0.001929       
   LBFGS   139      3    0.009684    0.085957   0.006321  31.6531    0.009066    0.003235       
   LBFGS   140      3    0.009466    0.011807   0.001563  31.6646    0.002840    0.001319       
   LBFGS   141      3    0.009376    0.012821   0.001564  31.7013    0.002868    0.001157       
   LBFGS   142      3    0.009102    0.032856   0.002863  31.8609    0.005081    0.001660       
   LBFGS   143      3    0.008736    0.049195   0.004167  32.1539    0.008208    0.002659       
   LBFGS   144      3    0.008650    0.038109   0.003690  32.2036    0.007251    0.002814       
   LBFGS   145      3    0.008475    0.020025   0.002100  32.2399    0.003490    0.001490       
   LBFGS   146      3    0.008246    0.016579   0.002446  32.4745    0.005358    0.002131       
   LBFGS   147      3    0.008385    0.024914   0.003807  32.5316    0.010978    0.004171       
   LBFGS   148      3    0.007996    0.005557   0.001223  32.5640    0.002559    0.001119       
   LBFGS   149      3    0.007938    0.006851   0.001395  32.6158    0.004591    0.001596       
   LBFGS   150      3    0.007839    0.019385   0.003339  32.8257    0.010109    0.003634       
   LBFGS   151      3    0.007601    0.024799   0.004410  33.1342    0.012943    0.004764       
   LBFGS   152      3    0.007152    0.010231   0.001697  33.1454    0.004461    0.001660       
   LBFGS   153      3    0.007098    0.006343   0.001362  33.1642    0.003553    0.001426       
   LBFGS   154      3    0.006695    0.012737   0.002257  33.4759    0.002438    0.001110       
   LBFGS   155      3    0.006630    0.012514   0.001991  33.5031    0.002393    0.001010       
   LBFGS   156      3    0.006481    0.013185   0.001777  33.6010    0.002895    0.001097       
   LBFGS   157      3    0.006112    0.014672   0.002313  33.8861    0.002119    0.000914       
   LBFGS   158      3    0.005720    0.014584   0.002429  34.2165    0.001927    0.000883       

                                .--------------------.
          ----------------------| CI-NEB convergence |-------------------------
          Item                value                   Tolerance       Converged
          ---------------------------------------------------------------------
          RMS(Fp)             0.0024288840            0.0100000000      YES
          MAX(|Fp|)           0.0145842009            0.0200000000      YES
          RMS(FCI)            0.0008828953            0.0010000000      YES
          MAX(|FCI|)          0.0019265223            0.0020000000      YES
          ---------------------------------------------------------------------

The elastic band and climbing image have converged successfully to a MEP in 158 iterations!


                    *********************H U R R A Y*********************
                    ***        THE NEB OPTIMIZATION HAS CONVERGED     ***
                    *****************************************************



---------------------------------------------------------------
                         PATH SUMMARY              
---------------------------------------------------------------
All forces in Eh/Bohr.

Image Dist.(Ang.)    E(Eh)   dE(kcal/mol)  max(|Fp|)  RMS(Fp)
  0     0.000    -990.26645      0.00       0.04187   0.01129
  1     4.693    -990.27367     -4.53       0.01458   0.00292
  2     9.230    -990.26976     -2.08       0.00800   0.00181
  3     9.708    -990.26073      3.59       0.00196   0.00088 <= CI
  4     9.849    -990.26305      2.13       0.00305   0.00125
  5    10.103    -990.27161     -3.24       0.01235   0.00471
  6    10.825    -990.28606    -12.30       0.01054   0.00349
  7    12.651    -990.29777    -19.66       0.00644   0.00163
  8    15.057    -990.30257    -22.66       0.00703   0.00162
  9    18.107    -990.30545    -24.48       0.00468   0.00128

Straight line distance between images along the path:
        D( 0- 1) =   4.6929 Ang.
        D( 1- 2) =   4.5368 Ang.
        D( 2- 3) =   0.4785 Ang.
        D( 3- 4) =   0.1403 Ang.
        D( 4- 5) =   0.2544 Ang.
        D( 5- 6) =   0.7219 Ang.
        D( 6- 7) =   1.8263 Ang.
        D( 7- 8) =   2.4058 Ang.
        D( 8- 9) =   3.0497 Ang.

---------------------------------------------------------------
               INFORMATION ABOUT SADDLE POINT     
---------------------------------------------------------------

Climbing image                            ....  3 
Energy                                    ....  -990.26072959 Eh
Max. abs. force                           ....  1.9265e-03 Eh/Bohr

-----------------------------------------
  SADDLE POINT (ANGSTROEM)
-----------------------------------------
C      0.604056     0.130344    -0.348198 
N      1.770310     0.018683     0.299163 
C      2.004147     0.782894     1.355919 
C      1.147919     1.786999     1.812342 
C     -0.058461     1.924204     1.162794 
C     -0.349418     1.104737     0.077852 
N     -1.635799     1.215922    -0.529841 
O     -1.824638     0.712217    -1.626061 
O     -2.526279     1.805121     0.084232 
F      0.728575    -0.126820    -1.680244 
H      2.955599     0.623843     1.854989 
H      1.441525     2.448942     2.617863 
H     -0.776799     2.682773     1.453662 
C     -0.693922    -3.091765    -1.413616 
H     -0.945118    -2.555318    -2.334565 
H     -1.477799    -3.838833    -1.249599 
H      0.241066    -3.635331    -1.580847 
S     -0.604964    -1.988611     0.044155 

-----------------------------------------
  FORCES (Eh/Bohr)
-----------------------------------------
C     -0.000171     0.000597    -0.000657 
N      0.000613     0.000529    -0.000753 
C     -0.000387     0.000340    -0.000658 
C      0.000682    -0.001347     0.000384 
C     -0.001428     0.000242    -0.000038 
C      0.000469    -0.000631    -0.001440 
N      0.000003     0.000600     0.000547 
O     -0.000008    -0.001055    -0.001029 
O      0.000465     0.000200    -0.001357 
F     -0.000963    -0.001279    -0.000677 
H      0.000871    -0.000217    -0.000611 
H     -0.000764    -0.001815     0.000716 
H     -0.000183    -0.001050     0.000354 
C      0.000103     0.001149     0.001023 
H      0.000332     0.001927     0.001767 
H      0.000462     0.000841    -0.000091 
H      0.000203     0.001674     0.000592 
S     -0.000396    -0.000632     0.001831 

-----------------------------------------
  UNIT TANGENT
-----------------------------------------
C     -0.276803    -0.501037     0.116942 
N     -0.093975    -0.238059     0.111844 
C     -0.053336    -0.101223    -0.050309 
C     -0.029911    -0.034853    -0.021690 
C     -0.014969    -0.046610    -0.027763 
C     -0.089657    -0.125064     0.021786 
N     -0.005821    -0.046243     0.042018 
O     -0.051954    -0.074495     0.030301 
O     -0.024042     0.061042    -0.018500 
F      0.082309     0.062242    -0.079796 
H     -0.009713    -0.006846    -0.074206 
H      0.010744    -0.006899    -0.057239 
H      0.024422     0.007377    -0.069442 
C      0.105844     0.190805     0.014816 
H      0.021488     0.062534    -0.026327 
H      0.067840     0.241723     0.196901 
H      0.045478     0.090843     0.027505 
S      0.292055     0.464765    -0.136843 
 => Unit tangent is an approximation to the TS mode at the saddle point

Next a TS optimization is performed on the CI from the NEB run.

         *************************************************************
         *                       TS OPTIMIZATION                     *
         *************************************************************


Following output files will be written:
Converged TS will be written to          ....  TS_search_opt_without_h_NEB-TS_converged.xyz
                                         ....  TS_search_opt_without_h.xyz
Current trajectory will be written to    ....  TS_search_opt_without_h_trj.xyz
Initial Hessian will be stored in        ....  TS_search_opt_without_h.appr.hess
Geometry optimization settings:
Update method            Update   .... Bofill
Choice of coordinates    CoordSys .... Z-matrix Internals
Initial Hessian          InHess   .... Read

Convergence Tolerances:
Energy Change            TolE     ....  5.0000e-06 Eh
Max. Gradient            TolMAXG  ....  3.0000e-04 Eh/bohr
RMS Gradient             TolRMSG  ....  1.0000e-04 Eh/bohr
Max. Displacement        TolMAXD  ....  4.0000e-03 bohr
RMS Displacement         TolRMSD  ....  2.0000e-03 bohr
Strict Convergence                ....  False
------------------------------------------------------------------------------
                        ORCA OPTIMIZATION COORDINATE SETUP
------------------------------------------------------------------------------

The optimization will be done in new redundant internal coordinates
Making redundant internal coordinates   ...  (new redundants) done
Following TS mode number                ...     0
TS-active-atoms for coordinate setup... 0 15 17 
Evaluating the initial hessian          ... (Reading Exact Hessian)...  
InHessName: TS_search_opt_without_h.appr.hess	The file <TS_search_opt_without_h.appr.hess> is opened as a .hess file
done
done
Diagonalizing the Hessian               .... done
Dimension of the hessian                .... 157
Lowest eigenvalues of the non projected Hessian:
 -0.006025581 -0.000000000 -0.000000000 -0.000000000 -0.000000000
done
Evaluating the coordinates              ...  done
Calculating the B-matrix                .... done
Calculating the G-matrix                .... done
Diagonalizing the G-matrix              .... done
The first mode is                       ....  109
The number of degrees of freedom        ....   48

    -----------------------------------------------------------------
                    Redundant Internal Coordinates


    -----------------------------------------------------------------
         Definition                    Initial Value    d2E/dq (diagonal element)
    -----------------------------------------------------------------
      1. B(N   1,C   0)                  1.3385         0.200532   
      2. B(C   2,C   0)                  2.3000         0.122492   
      3. B(C   2,N   1)                  1.3249         0.321763   
      4. B(C   3,C   2)                  1.3963         0.445365   
      5. B(C   3,C   0)                  2.7764         0.102018   
      6. B(C   4,C   3)                  1.3770         0.494907   
      7. B(C   4,C   0)                  2.4372         0.108048   
      8. B(C   5,C   0)                  1.4283         0.139377   
      9. B(C   5,C   4)                  1.3904         0.290565   
     10. B(N   6,C   0)                  2.4957         0.085907   
     11. B(N   6,C   5)                  1.4270         0.257918   
     12. B(O   7,C   0)                  2.8054         0.059699   
     13. B(O   7,N   6)                  1.2211         0.861417   
     14. B(O   8,N   6)                  1.2317         0.894365   
     15. B(F   9,C   0)                  1.3623         0.322394   
     16. B(H  10,C   2)                  1.0861         0.366029   
     17. B(H  11,C   3)                  1.0832         0.369689   
     18. B(H  12,C   4)                  1.0845         0.367694   
     19. B(H  14,C  13)                  1.0950         0.253657   
     20. B(H  14,F   9)                  3.0211         0.031219   
     21. B(H  15,C  13)                  1.0952         0.290569   
     22. B(H  16,C  13)                  1.0944         0.286845   
     23. B(S  17,H  14)                  2.4688         0.063118   
     24. B(S  17,O   7)                  3.4017         0.012952   
     25. B(S  17,N   6)                  3.4148         0.024409   
     26. B(S  17,F   9)                  2.8667         0.053527   
     27. B(S  17,C   5)                  3.1041         0.044064   
     28. B(S  17,N   1)                  3.1203         0.068027   
     29. B(S  17,C   0)                  2.4710         0.003063   
     30. B(S  17,H  15)                  2.4205         0.080557   
     31. B(S  17,C  13)                  1.8303         0.136398   
     32. B(S  17,H  16)                  2.4633         0.066162   
     33. A(N   1,C   0,F   9)          112.1785         0.012229   
     34. A(F   9,C   0,S  17)           92.1835         0.007606   
     35. A(C   5,C   0,S  17)          102.1823         0.006809   
     36. A(N   1,C   0,S  17)          106.1399         0.009957   
     37. A(C   5,C   0,F   9)          118.7798         0.012300   
     38. A(N   1,C   0,C   5)          119.6222         0.021663   
     39. A(C   0,N   1,S  17)           49.5250         0.005186   
     40. A(C   2,N   1,S  17)          124.7914         0.020832   
     41. A(C   0,N   1,C   2)          119.4327         0.028979   
     42. A(C   3,C   2,H  10)          119.4911         0.193985   
     43. A(N   1,C   2,C   3)          124.5603         0.059791   
     44. A(N   1,C   2,H  10)          115.8898         0.194176   
     45. A(C   2,C   3,C   4)          117.0451         0.065426   
     46. A(C   4,C   3,H  11)          121.8294         0.194068   
     47. A(C   2,C   3,H  11)          121.0871         0.193545   
     48. A(C   3,C   4,C   5)          119.5172         0.055044   
     49. A(C   5,C   4,H  12)          118.8772         0.191457   
     50. A(C   3,C   4,H  12)          121.5675         0.191987   
     51. A(C   0,C   5,N   6)          121.8627         0.035331   
     52. A(C   0,C   5,C   4)          119.6781         0.023671   
     53. A(C   4,C   5,S  17)          127.8087         0.016078   
     54. A(N   6,C   5,S  17)           89.9318         0.014867   
     55. A(C   0,C   5,S  17)           51.0882         0.003069   
     56. A(C   4,C   5,N   6)          118.3591         0.047238   
     57. A(C   5,N   6,O   8)          118.4672         0.245096   
     58. A(O   7,N   6,O   8)          122.2134         0.251993   
     59. A(C   5,N   6,O   7)          119.3115         0.073349   
     60. A(C   0,F   9,S  17)           59.4649         0.004954   
     61. A(H  16,C  13,S  17)          112.3060         0.093420   
     62. A(H  15,C  13,S  17)          109.0649         0.089920   
     63. A(H  14,C  13,S  17)          112.6900         0.080976   
     64. A(H  15,C  13,H  16)          107.1921         0.073297   
     65. A(H  14,C  13,H  15)          107.2140         0.068305   
     66. A(H  14,C  13,H  16)          108.1079         0.082185   
     67. A(C   0,S  17,C  13)          114.4672         0.018366   
     68. A(C   5,S  17,F   9)           47.2367         0.011575   
     69. A(N   1,S  17,F   9)           43.7186         0.011492   
     70. A(C   0,S  17,F   9)           28.3516         0.011208   
     71. A(F   9,S  17,C  13)           86.2703         0.014951   
     72. A(N   1,S  17,C   5)           45.1996         0.007330   
     73. A(C   0,S  17,C   5)           26.7296         0.004301   
     74. A(C   5,S  17,C  13)          127.8275         0.018160   
     75. A(C   0,S  17,N   1)           24.3351         0.005616   
     76. A(N   1,S  17,C  13)          119.3290         0.016264   
     77. D(S  17,N   1,C   0,C   5)    114.6613         0.008224   
     78. D(C   2,N   1,C   0,C   5)      2.3406         0.010635   
     79. D(S  17,N   1,C   0,F   9)    -99.2536         0.008938   
     80. D(C   2,N   1,C   0,S  17)   -112.3207         0.012379   
     81. D(C   2,N   1,C   0,F   9)    148.4258         0.012187   
     82. D(H  10,C   2,N   1,C   0)    178.2228         0.012984   
     83. D(C   3,C   2,N   1,S  17)    -63.5583         0.012841   
     84. D(H  10,C   2,N   1,S  17)    119.2556         0.014964   
     85. D(C   3,C   2,N   1,C   0)     -4.5911         0.013297   
     86. D(H  11,C   3,C   2,N   1)   -173.3971         0.011551   
     87. D(H  11,C   3,C   2,H  10)      3.6946         0.013438   
     88. D(C   4,C   3,C   2,H  10)   -178.5201         0.012019   
     89. D(C   4,C   3,C   2,N   1)      4.3882         0.011399   
     90. D(C   5,C   4,C   3,H  11)    175.7816         0.010923   
     91. D(C   5,C   4,C   3,C   2)     -1.9861         0.008987   
     92. D(H  12,C   4,C   3,C   2)   -179.7137         0.009561   
     93. D(H  12,C   4,C   3,H  11)     -1.9460         0.012353   
     94. D(N   6,C   5,C   4,C   3)    176.5288         0.008515   
     95. D(N   6,C   5,C   0,S  17)    -59.7659         0.004683   
     96. D(S  17,C   5,C   0,F   9)     99.3843         0.007772   
     97. D(S  17,C   5,C   0,N   1)   -116.7369         0.009818   
     98. D(C   0,C   5,C   4,C   3)      0.0980         0.009686   
     99. D(N   6,C   5,C   4,H  12)     -5.6823         0.009115   
    100. D(N   6,C   5,C   0,F   9)     39.6184         0.007317   
    101. D(N   6,C   5,C   0,N   1)   -176.5027         0.007169   
    102. D(C   4,C   5,C   0,S  17)    116.5358         0.009204   
    103. D(S  17,C   5,C   4,H  12)   -120.3347         0.010807   
    104. D(S  17,C   5,C   4,C   3)     61.8764         0.009993   
    105. D(C   4,C   5,C   0,F   9)   -144.0799         0.010766   
    106. D(C   4,C   5,C   0,N   1)     -0.2010         0.009613   
    107. D(C   0,C   5,C   4,H  12)    177.8869         0.009711   
    108. D(O   8,N   6,C   5,S  17)    118.7740         0.008686   
    109. D(O   8,N   6,C   5,C   4)    -15.3321         0.010582   
    110. D(O   8,N   6,C   5,C   0)    161.0166         0.009416   
    111. D(O   7,N   6,C   5,S  17)    -60.2284         0.008578   
    112. D(O   7,N   6,C   5,C   4)    165.6655         0.011664   
    113. D(O   7,N   6,C   5,C   0)    -17.9858         0.011092   
    114. D(S  17,F   9,C   0,C   5)   -105.1817         0.007516   
    115. D(S  17,F   9,C   0,N   1)    108.4185         0.011517   
    116. D(N   1,S  17,C   5,C   4)    -72.3213         0.022755   
    117. D(N   1,S  17,C   5,C   0)     27.9929         0.007915   
    118. D(C   0,S  17,C   5,N   6)    132.7951         0.017761   
    119. D(C  13,S  17,C   5,N   6)     64.8811         0.015728   
    120. D(C  13,S  17,C   5,C   4)   -168.2282         0.017569   
    121. D(C  13,S  17,C   5,C   0)    -67.9140         0.008060   
    122. D(F   9,S  17,N   1,C   0)     38.9365         0.013053   
    123. D(C   5,S  17,N   1,C   2)     70.3523         0.023489   
    124. D(C   5,S  17,N   1,C   0)    -30.8179         0.009288   
    125. D(C   0,S  17,N   1,C   2)    101.1703         0.022681   
    126. D(C  13,S  17,N   1,C   2)   -173.9610         0.019318   
    127. D(C  13,S  17,N   1,C   0)     84.8687         0.012073   
    128. D(F   9,S  17,C   0,C   5)    120.0745         0.012428   
    129. D(F   9,S  17,C   0,N   1)   -113.8474         0.013152   
    130. D(F   9,S  17,N   1,C   2)    140.1068         0.031825   
    131. D(C   5,S  17,C   0,F   9)   -120.0745         0.012428   
    132. D(C   5,S  17,C   0,N   1)    126.0781         0.016213   
    133. D(N   1,S  17,C   0,F   9)    113.8474         0.013152   
    134. D(C   0,S  17,C   5,C   4)   -100.3142         0.020310   
    135. D(N   1,S  17,C   0,C   5)   -126.0781         0.016213   
    136. D(C  13,S  17,C   0,F   9)      6.4010         0.005744   
    137. D(C  13,S  17,C   0,C   5)    126.4755         0.006725   
    138. D(N   1,S  17,C   5,N   6)    160.7880         0.019815   
    139. D(F   9,S  17,C  13,H  16)     81.1469         0.011566   
    140. D(F   9,S  17,C  13,H  15)   -160.1804         0.012107   
    141. D(C  13,S  17,C   0,N   1)   -107.4464         0.007565   
    142. D(C   5,S  17,C  13,H  16)    105.3570         0.013449   
    143. D(C   5,S  17,C  13,H  15)   -135.9703         0.014038   
    144. D(C   5,S  17,C  13,H  14)    -17.0314         0.015415   
    145. D(N   1,S  17,C  13,H  15)    169.9760         0.015884   
    146. D(N   1,S  17,C  13,H  14)    -71.0851         0.014646   
    147. D(C   0,S  17,C  13,H  16)     78.1056         0.011399   
    148. D(C   0,S  17,C  13,H  15)   -163.2217         0.011923   
    149. D(C   0,S  17,C  13,H  14)    -44.2828         0.011726   
    150. D(N   1,S  17,C  13,H  16)     51.3033         0.015305   
    151. D(C   5,S  17,F   9,C   0)     32.0165         0.009545   
    152. D(N   1,S  17,F   9,C   0)    -33.0477         0.012433   
    153. D(C  13,S  17,F   9,C   0)   -174.1635         0.004677   
    154. D(F   9,S  17,C  13,H  14)    -41.2415         0.012175   
    155. D(F   9,S  17,C   5,N   6)     98.7565         0.020156   
    156. D(F   9,S  17,C   5,C   4)   -134.3528         0.026357   
    157. D(F   9,S  17,C   5,C   0)    -34.0386         0.010025   
    -----------------------------------------------------------------

Number of atoms                         .... 18
Number of degrees of freedom            .... 157

         *************************************************************
         *                GEOMETRY OPTIMIZATION CYCLE   1            *
         *************************************************************


           ************************************************************
           *        Program running with 24 parallel MPI-processes    *
           *              working on a common directory               *
           ************************************************************
------------------------------------------------------------------------------
                           ORCA GTO INTEGRAL CALCULATION
                           -- RI-GTO INTEGRALS CHOSEN --
------------------------------------------------------------------------------
------------------------------------------------------------------------------
                   ___                                                        
                  /   \      - P O W E R E D   B Y -                         
                 /     \                                                     
                 |  |  |   _    _      __       _____    __    __             
                 |  |  |  | |  | |    /  \     |  _  \  |  |  /  |          
                  \  \/   | |  | |   /    \    | | | |  |  | /  /          
                 / \  \   | |__| |  /  /\  \   | |_| |  |  |/  /          
                |  |  |   |  __  | /  /__\  \  |    /   |      \           
                |  |  |   | |  | | |   __   |  |    \   |  |\   \          
                \     /   | |  | | |  |  |  |  | |\  \  |  | \   \       
                 \___/    |_|  |_| |__|  |__|  |_| \__\ |__|  \__/        
                                                                              
                      - O R C A' S   B I G   F R I E N D -                    
                                      &                                       
                       - I N T E G R A L  F E E D E R -                       
                                                                              
 v1 FN, 2020, v2 2021                                                         
------------------------------------------------------------------------------


Reading SHARK input file TS_search_opt_without_h.SHARKINP.tmp ... ok
----------------------
SHARK INTEGRAL PACKAGE
----------------------

Number of atoms                             ...     18
Number of basis functions                   ...    314
Number of shells                            ...    154
Maximum angular momentum                    ...      2
Integral batch strategy                     ... SHARK/LIBINT Hybrid
RI-J (if used) integral strategy            ... SPLIT-RIJ (Revised 2003 algorithm where possible)
Printlevel                                  ...      1
Contraction scheme used                     ... SEGMENTED contraction
Coulomb Range Separation                    ... NOT USED
Exchange Range Separation                   ... Long Range
   Mu parameter                             ...  0.300000
   Scaling (regular/separated)              ...  0.157706  0.842294
Finite Nucleus Model                        ... NOT USED
Auxiliary Coulomb fitting basis             ... AVAILABLE
   # of basis functions in Aux-J            ...    656
   # of shells in Aux-J                     ...    212
   Maximum angular momentum in Aux-J        ...      4
Auxiliary J/K fitting basis                 ... NOT available
Auxiliary Correlation fitting basis         ... NOT available
Auxiliary 'external' fitting basis          ... NOT available
Integral threshold                          ...     2.500000e-11
Primitive cut-off                           ...     2.500000e-12
Primitive pair pre-selection threshold      ...     2.500000e-12

Calculating pre-screening integrals         ... done (  0.1 sec) Dimension = 154
Organizing shell pair data                  ... done (  0.1 sec)
Shell pair information
Total number of shell pairs                 ...     11935
Shell pairs after pre-screening             ...     10243
Total number of primitive shell pairs       ...     38500
Primitive shell pairs kept                  ...     23377
          la=0 lb=0:   3135 shell pairs
          la=1 lb=0:   4175 shell pairs
          la=1 lb=1:   1430 shell pairs
          la=2 lb=0:    843 shell pairs
          la=2 lb=1:    590 shell pairs
          la=2 lb=2:     70 shell pairs

Calculating one electron integrals          ... done (  0.0 sec)
Calculating RI/J V-Matrix + Cholesky decomp.... done (  0.1 sec)
Calculating Nuclear repulsion               ... done (  0.0 sec) ENN=    811.071427550472 Eh

SHARK setup successfully completed in   0.6 seconds

Maximum memory used throughout the entire GTOINT-calculation: 17.0 MB


           ************************************************************
           *        Program running with 24 parallel MPI-processes    *
           *              working on a common directory               *
           ************************************************************
-------------------------------------------------------------------------------
                                 ORCA SCF
-------------------------------------------------------------------------------

------------
SCF SETTINGS
------------
Hamiltonian:
 Density Functional     Method          .... DFT(GTOs)
 Exchange Functional    Exchange        .... WB97X
 Correlation Functional Correlation     .... WB97X
 Gradients option       PostSCFGGA      .... off
 Hybrid DFT is turned on
   Fraction HF Exchange ScalHFX         ....  0.157706
   Scaling of DF-GGA-X  ScalDFX         ....  0.000000
   Scaling of DF-GGA-C  ScalDFC         ....  1.000000
   Scaling of DF-LDA-C  ScalLDAC        ....  1.000000
   Perturbative correction              ....  0.000000
   Density functional embedding theory  .... OFF
 Long-range corrected/Screened/Range-Separated Hybrid DFT is turned on
   Amount of maximum screened exact exchange              ....  0.842294
   Range separation parameter mu (erf(mu*r12)/r12)        ....  0.300000
 RI-approximation to the Coulomb term is turned on
   Number of AuxJ basis functions       .... 656
   RIJ-COSX (HFX calculated with COS-X)).... on


General Settings:
 Integral files         IntName         .... TS_search_opt_without_h
 Hartree-Fock type      HFTyp           .... RHF
 Total Charge           Charge          ....   -1
 Multiplicity           Mult            ....    1
 Number of Electrons    NEL             ....   98
 Basis Dimension        Dim             ....  314
 Nuclear Repulsion      ENuc            ....    811.0714275505 Eh

Convergence Acceleration:
 DIIS                   CNVDIIS         .... on
   Start iteration      DIISMaxIt       ....    12
   Startup error        DIISStart       ....  0.200000
   # of expansion vecs  DIISMaxEq       ....     5
   Bias factor          DIISBfac        ....   1.050
   Max. coefficient     DIISMaxC        ....  10.000
 Trust-Rad. Augm. Hess. CNVTRAH         .... auto
   Auto Start mean grad. ratio tolernc. ....  1.125000
   Auto Start start iteration           ....     1
   Auto Start num. interpolation iter.  ....    10
   Max. Number of Micro iterations      ....    16
   Max. Number of Macro iterations      .... Maxiter - #DIIS iter
   Number of Davidson start vectors     ....     2
   Converg. threshold I  (grad. norm)   ....   1.000e-05
   Converg. threshold II (energy diff.) ....   1.000e-08
   Grad. Scal. Fac. for Micro threshold ....   0.100
   Minimum threshold for Micro iter.    ....   0.010
   NR start threshold (gradient norm)   ....   0.001
   Initial trust radius                 ....   0.400
   Minimum AH scaling param. (alpha)    ....   1.000
   Maximum AH scaling param. (alpha)    .... 1000.000
   Orbital update algorithm             .... Taylor
   White noise on init. David. guess    .... on
   Maximum white noise                  ....   0.010
   Quad. conv. algorithm                .... NR
 SOSCF                  CNVSOSCF        .... on
   Start iteration      SOSCFMaxIt      ....   150
   Startup grad/error   SOSCFStart      ....  0.003300
 Level Shifting         CNVShift        .... on
   Level shift para.    LevelShift      ....    0.2500
   Turn off err/grad.   ShiftErr        ....    0.0010
 Zerner damping         CNVZerner       .... off
 Static damping         CNVDamp         .... on
   Fraction old density DampFac         ....    0.7000
   Max. Damping (<1)    DampMax         ....    0.9800
   Min. Damping (>=0)   DampMin         ....    0.0000
   Turn off err/grad.   DampErr         ....    0.1000
 Fernandez-Rico         CNVRico         .... off

SCF Procedure:
 Maximum # iterations   MaxIter         ....   125
 SCF integral mode      SCFMode         .... Direct
   Integral package                     .... SHARK and LIBINT hybrid scheme
 Reset frequency        DirectResetFreq ....    20
 Integral Threshold     Thresh          ....  2.500e-11 Eh
 Primitive CutOff       TCut            ....  2.500e-12 Eh

Convergence Tolerance:
 Convergence Check Mode ConvCheckMode   .... Total+1el-Energy
 Convergence forced     ConvForced      .... 0
 Energy Change          TolE            ....  1.000e-08 Eh
 1-El. energy change                    ....  1.000e-05 Eh
 Orbital Gradient       TolG            ....  1.000e-05
 Orbital Rotation angle TolX            ....  1.000e-05
 DIIS Error             TolErr          ....  5.000e-07


Diagonalization of the overlap matrix:
Smallest eigenvalue                        ... 2.844e-06
Time for diagonalization                   ...    0.021 sec
Threshold for overlap eigenvalues          ... 1.000e-08
Number of eigenvalues below threshold      ... 0
Time for construction of square roots      ...    0.345 sec
Total time needed                          ...    0.368 sec

---------------------
INITIAL GUESS: MOREAD
---------------------
Guess MOs are being read from file: TS_search_opt_without_h.gbw
Input Geometry matches current geometry (good)
Input basis set matches current basis set (good)
MOs were renormalized
MOs were reorthogonalized (Cholesky)
                      ------------------
                      INITIAL GUESS DONE (   0.0 sec)
                      ------------------
-------------------
DFT GRID GENERATION
-------------------

General Integration Accuracy     IntAcc      ... 4.388
Radial Grid Type                 RadialGrid  ... OptM3 with GC (2021)
Angular Grid (max. ang.)         AngularGrid ... 4 (Lebedev-302)
Angular grid pruning method      GridPruning ... 4 (adaptive)
Weight generation scheme         WeightScheme... Becke
Basis function cutoff            BFCut       ... 1.0000e-11
Integration weight cutoff        WCut        ... 1.0000e-14
Angular grids for H and He will be reduced by one unit
Partially contracted basis set               ... off
Rotationally invariant grid construction     ... off

Total number of grid points                  ...    97764
Total number of batches                      ...     1539
Average number of points per batch           ...       63
Average number of grid points per atom       ...     5431
Time for grid setup =    1.010 sec

--------------------
COSX GRID GENERATION
--------------------

GRIDX 1
-------
General Integration Accuracy     IntAcc      ... 3.816
Radial Grid Type                 RadialGrid  ... OptM3 with GC (2021)
Angular Grid (max. ang.)         AngularGrid ... 1 (Lebedev-50)
Angular grid pruning method      GridPruning ... 4 (adaptive)
Weight generation scheme         WeightScheme... Becke
Basis function cutoff            BFCut       ... 1.0000e-11
Integration weight cutoff        WCut        ... 1.0000e-14
Angular grids for H and He will be reduced by one unit
Partially contracted basis set               ... on
Rotationally invariant grid construction     ... off

Total number of grid points                  ...    12234
Total number of batches                      ...      200
Average number of points per batch           ...       61
Average number of grid points per atom       ...      680
UseSFitting                                  ... on

GRIDX 2
-------
General Integration Accuracy     IntAcc      ... 4.020
Radial Grid Type                 RadialGrid  ... OptM3 with GC (2021)
Angular Grid (max. ang.)         AngularGrid ... 2 (Lebedev-110)
Angular grid pruning method      GridPruning ... 4 (adaptive)
Weight generation scheme         WeightScheme... Becke
Basis function cutoff            BFCut       ... 1.0000e-11
Integration weight cutoff        WCut        ... 1.0000e-14
Angular grids for H and He will be reduced by one unit
Partially contracted basis set               ... on
Rotationally invariant grid construction     ... off

Total number of grid points                  ...    30604
Total number of batches                      ...      487
Average number of points per batch           ...       62
Average number of grid points per atom       ...     1700
UseSFitting                                  ... on

GRIDX 3
-------
General Integration Accuracy     IntAcc      ... 4.338
Radial Grid Type                 RadialGrid  ... OptM3 with GC (2021)
Angular Grid (max. ang.)         AngularGrid ... 3 (Lebedev-194)
Angular grid pruning method      GridPruning ... 4 (adaptive)
Weight generation scheme         WeightScheme... Becke
Basis function cutoff            BFCut       ... 1.0000e-11
Integration weight cutoff        WCut        ... 1.0000e-14
Angular grids for H and He will be reduced by one unit
Partially contracted basis set               ... on
Rotationally invariant grid construction     ... off

Total number of grid points                  ...    67970
Total number of batches                      ...     1070
Average number of points per batch           ...       63
Average number of grid points per atom       ...     3776
UseSFitting                                  ... on

Time for X-Grid setup             =    0.961 sec


--------------------
CPCM SOLVATION MODEL
--------------------
CPCM parameters:
  Epsilon                                         ...      78.3550
  Refrac                                          ...       1.3328
  Rsolv                                           ...       1.3000
  Surface type                                    ... GAUSSIAN VDW
  Epsilon function type                           ...         CPCM
Solvent:                                     ... WATER
SMD-CDS solvent descriptors:
  Soln                                       ...    1.3328
  Soln25                                     ...    1.3323
  Sola                                       ...    0.0000
  Solb                                       ...    0.0000
  Solg                                       ...    0.0000
  Solc                                       ...    0.0000
  Solh                                       ...    0.0000
Radii:
 Radius for C  used is    3.4960 Bohr (=   1.8500 Ang.)
 Radius for N  used is    3.5716 Bohr (=   1.8900 Ang.)
 Radius for O  used is    2.8724 Bohr (=   1.5200 Ang.)
 Radius for F  used is    3.2692 Bohr (=   1.7300 Ang.)
 Radius for H  used is    2.2677 Bohr (=   1.2000 Ang.)
 Radius for S  used is    4.7054 Bohr (=   2.4900 Ang.)
Calculating surface                               ...        done! (  0.0s)
GEPOL surface points                              ...         1068
GEPOL Volume                                      ...    1271.9021
GEPOL Surface-area                                ...     708.8267
Calculating surface distance matrix               ...        done! (  0.0s)
Performing Cholesky decomposition & store         ...        done! (  0.1s)
Overall time for CPCM initialization              ...                 0.1s
--------------
SCF ITERATIONS
--------------
ITER       Energy         Delta-E        Max-DP      RMS-DP      [F,P]     Damp
               ***  Starting incremental Fock matrix formation  ***
                      *** Initiating the SOSCF procedure ***
                      *** Re-Reading the Fockian *** 
                      *** Removing any level shift *** 
ITER      Energy       Delta-E        Grad      Rot      Max-DP    RMS-DP
  0   -990.26588776 -990.2658877575  0.000003  0.000003  0.042112  0.000270
               *** Restarting incremental Fock matrix formation ***
                 **** Energy Check signals convergence ****
              ***Rediagonalizing the Fockian in SOSCF/NRSCF***

               *****************************************************
               *                     SUCCESS                       *
               *           SCF CONVERGED AFTER   1 CYCLES          *
               *****************************************************

Old exchange energy                            =    -28.483856157 Eh
New exchange energy                            =    -28.483879875 Eh
Exchange energy change after final integration =     -0.000023718 Eh
Total energy after final integration           =   -990.265911478 Eh
Final COS-X integration done in                =     4.162 sec

SMD CDS free energy correction energy :                 5.44345     Kcal/mol
Total Energy after SMD CDS correction =              -990.257236785 Eh

----------------
TOTAL SCF ENERGY
----------------

Total Energy       :         -990.25723678 Eh          -26946.26933 eV

Components:
Nuclear Repulsion  :          811.07142755 Eh           22070.37558 eV
Electronic Energy  :        -1801.32866434 Eh          -49016.64491 eV
One Electron Energy:        -2986.78567521 Eh          -81274.57014 eV
Two Electron Energy:         1185.45701087 Eh           32257.92523 eV
Max COSX asymmetry :            0.00000354 Eh               0.00010 eV
CPCM Dielectric    :           -0.10315612 Eh              -2.80702 eV
SMD CDS (Gcds)     :            0.00867469 Eh               0.23605 eV

Virial components:
Potential Energy   :        -1978.34319614 Eh          -53833.45521 eV
Kinetic Energy     :          988.08595935 Eh           26887.18587 eV
Virial Ratio       :            2.00219746


DFT components:
N(Alpha)           :       48.999959878753 electrons
N(Beta)            :       48.999959878753 electrons
N(Total)           :       97.999919757506 electrons
E(XC)              :      -73.543984920221 Eh       
DFET-embed. en.    :        0.000000000000 Eh       
CPCM Solvation Model Properties:
Surface-charge          :            0.95151632
Charge-correction       :           -0.00604012 Eh              -0.16436 eV
Free-energy (cav+disp)  :            0.00867469 Eh               0.23605 eV

---------------
SCF CONVERGENCE
---------------

  Last Energy change         ...   -2.1403e-09  Tolerance :   1.0000e-08
  Last MAX-Density change    ...    3.5527e-15  Tolerance :   1.0000e-07
  Last RMS-Density change    ...    4.4715e-17  Tolerance :   5.0000e-09
  Last Orbital Gradient      ...    1.5442e-06  Tolerance :   1.0000e-05
  Last Orbital Rotation      ...    3.7701e-06  Tolerance :   1.0000e-05

             **** THE GBW FILE WAS UPDATED (TS_search_opt_without_h.gbw) ****
             **** DENSITY TS_search_opt_without_h.scfp WAS UPDATED ****
             **** ENERGY FILE WAS UPDATED (TS_search_opt_without_h.en.tmp) ****
             **** THE GBW FILE WAS UPDATED (TS_search_opt_without_h.gbw) ****
             **** DENSITY TS_search_opt_without_h.scfp WAS UPDATED ****
----------------
ORBITAL ENERGIES
----------------

  NO   OCC          E(Eh)            E(eV) 
   0   2.0000     -88.750166     -2415.0148 
   1   2.0000     -24.747510      -673.4140 
   2   2.0000     -19.232943      -523.3550 
   3   2.0000     -19.227925      -523.2185 
   4   2.0000     -14.644996      -398.5106 
   5   2.0000     -14.396082      -391.7373 
   6   2.0000     -10.413547      -283.3670 
   7   2.0000     -10.314489      -280.6715 
   8   2.0000     -10.310959      -280.5755 
   9   2.0000     -10.293395      -280.0975 
  10   2.0000     -10.259962      -279.1878 
  11   2.0000     -10.248160      -278.8666 
  12   2.0000      -7.945947      -216.2202 
  13   2.0000      -5.908981      -160.7915 
  14   2.0000      -5.903062      -160.6305 
  15   2.0000      -5.900291      -160.5551 
  16   2.0000      -1.376835       -37.4656 
  17   2.0000      -1.354033       -36.8451 
  18   2.0000      -1.190808       -32.4035 
  19   2.0000      -1.094041       -29.7704 
  20   2.0000      -0.985512       -26.8171 
  21   2.0000      -0.922139       -25.0927 
  22   2.0000      -0.849380       -23.1128 
  23   2.0000      -0.843207       -22.9448 
  24   2.0000      -0.771200       -20.9854 
  25   2.0000      -0.742494       -20.2043 
  26   2.0000      -0.697445       -18.9784 
  27   2.0000      -0.688370       -18.7315 
  28   2.0000      -0.669664       -18.2225 
  29   2.0000      -0.660657       -17.9774 
  30   2.0000      -0.650008       -17.6876 
  31   2.0000      -0.619929       -16.8691 
  32   2.0000      -0.595169       -16.1954 
  33   2.0000      -0.590079       -16.0569 
  34   2.0000      -0.537995       -14.6396 
  35   2.0000      -0.518819       -14.1178 
  36   2.0000      -0.506147       -13.7730 
  37   2.0000      -0.501107       -13.6358 
  38   2.0000      -0.498696       -13.5702 
  39   2.0000      -0.494027       -13.4432 
  40   2.0000      -0.439692       -11.9646 
  41   2.0000      -0.427979       -11.6459 
  42   2.0000      -0.418540       -11.3890 
  43   2.0000      -0.413805       -11.2602 
  44   2.0000      -0.401467       -10.9245 
  45   2.0000      -0.387131       -10.5344 
  46   2.0000      -0.353330        -9.6146 
  47   2.0000      -0.280293        -7.6272 
  48   2.0000      -0.268620        -7.3095 
  49   0.0000      -0.021199        -0.5768 
  50   0.0000       0.050537         1.3752 
  51   0.0000       0.055996         1.5237 
  52   0.0000       0.062351         1.6967 
  53   0.0000       0.068515         1.8644 
  54   0.0000       0.075461         2.0534 
  55   0.0000       0.083324         2.2674 
  56   0.0000       0.089096         2.4244 
  57   0.0000       0.094991         2.5848 
  58   0.0000       0.100977         2.7477 
  59   0.0000       0.114644         3.1196 
  60   0.0000       0.127357         3.4656 
  61   0.0000       0.130099         3.5402 
  62   0.0000       0.132620         3.6088 
  63   0.0000       0.137898         3.7524 
  64   0.0000       0.151214         4.1147 
  65   0.0000       0.163725         4.4552 
  66   0.0000       0.167858         4.5677 
  67   0.0000       0.169774         4.6198 
  68   0.0000       0.174366         4.7447 
  69   0.0000       0.176666         4.8073 
  70   0.0000       0.180363         4.9079 
  71   0.0000       0.187591         5.1046 
  72   0.0000       0.191925         5.2226 
  73   0.0000       0.197488         5.3739 
  74   0.0000       0.201981         5.4962 
  75   0.0000       0.204287         5.5589 
  76   0.0000       0.211092         5.7441 
  77   0.0000       0.213996         5.8231 
  78   0.0000       0.219817         5.9815 
  79   0.0000       0.224015         6.0957 
  80   0.0000       0.228323         6.2130 
  81   0.0000       0.231954         6.3118 
  82   0.0000       0.244111         6.6426 
  83   0.0000       0.249199         6.7811 
  84   0.0000       0.253985         6.9113 
  85   0.0000       0.264405         7.1948 
  86   0.0000       0.267993         7.2924 
  87   0.0000       0.273450         7.4410 
  88   0.0000       0.279770         7.6129 
  89   0.0000       0.284595         7.7442 
  90   0.0000       0.288701         7.8560 
  91   0.0000       0.299158         8.1405 
  92   0.0000       0.305913         8.3243 
  93   0.0000       0.311352         8.4723 
  94   0.0000       0.323541         8.8040 
  95   0.0000       0.330680         8.9983 
  96   0.0000       0.333851         9.0845 
  97   0.0000       0.340989         9.2788 
  98   0.0000       0.346500         9.4288 
  99   0.0000       0.355633         9.6773 
 100   0.0000       0.364421         9.9164 
 101   0.0000       0.366596         9.9756 
 102   0.0000       0.367366         9.9965 
 103   0.0000       0.376040        10.2326 
 104   0.0000       0.378410        10.2971 
 105   0.0000       0.388186        10.5631 
 106   0.0000       0.395898        10.7729 
 107   0.0000       0.407839        11.0979 
 108   0.0000       0.410183        11.1617 
 109   0.0000       0.418871        11.3981 
 110   0.0000       0.426282        11.5997 
 111   0.0000       0.438407        11.9297 
 112   0.0000       0.446663        12.1543 
 113   0.0000       0.453312        12.3353 
 114   0.0000       0.458041        12.4639 
 115   0.0000       0.469181        12.7671 
 116   0.0000       0.475408        12.9365 
 117   0.0000       0.485750        13.2179 
 118   0.0000       0.486891        13.2490 
 119   0.0000       0.492630        13.4051 
 120   0.0000       0.514601        14.0030 
 121   0.0000       0.531048        14.4505 
 122   0.0000       0.540190        14.6993 
 123   0.0000       0.549243        14.9457 
 124   0.0000       0.566569        15.4171 
 125   0.0000       0.605538        16.4775 
 126   0.0000       0.612459        16.6658 
 127   0.0000       0.622801        16.9473 
 128   0.0000       0.631155        17.1746 
 129   0.0000       0.656794        17.8723 
 130   0.0000       0.667070        18.1519 
 131   0.0000       0.675015        18.3681 
 132   0.0000       0.677623        18.4390 
 133   0.0000       0.693075        18.8595 
 134   0.0000       0.720780        19.6134 
 135   0.0000       0.728845        19.8329 
 136   0.0000       0.737438        20.0667 
 137   0.0000       0.745946        20.2982 
 138   0.0000       0.766071        20.8458 
 139   0.0000       0.775624        21.1058 
 140   0.0000       0.780866        21.2485 
 141   0.0000       0.800013        21.7695 
 142   0.0000       0.810680        22.0597 
 143   0.0000       0.839663        22.8484 
 144   0.0000       0.846454        23.0332 
 145   0.0000       0.866428        23.5767 
 146   0.0000       0.873113        23.7586 
 147   0.0000       0.898283        24.4435 
 148   0.0000       0.904883        24.6231 
 149   0.0000       0.916338        24.9348 
 150   0.0000       0.929384        25.2898 
 151   0.0000       0.948967        25.8227 
 152   0.0000       0.964417        26.2431 
 153   0.0000       0.966127        26.2896 
 154   0.0000       0.974420        26.5153 
 155   0.0000       1.001027        27.2393 
 156   0.0000       1.003200        27.2985 
 157   0.0000       1.018933        27.7266 
[...]
      9      -0.003530  -0.001143   0.121218   0.080728   0.391268   0.100194
     10       0.003458   0.000830  -0.053680  -0.070574  -0.169987   0.055548
     11       0.002711   0.000700   0.011682  -0.048492   0.047643   0.169655
     12      -0.001882  -0.000939   0.020961  -0.013338  -0.242415  -0.191320
     13      -0.000233  -0.001110   0.093745  -0.011385   0.092313  -0.098984
     14      -0.002284  -0.002363   0.158752  -0.031468  -0.064703  -0.311244
     15       0.006817   0.001491  -0.063944   0.015719   0.159020   0.026032
     16      -0.005670  -0.000270  -0.064680   0.059175  -0.204200   0.138305
     17      -0.001731   0.000720  -0.145544   0.094084  -0.139837   0.222462
     18      -0.003009   0.002882  -0.041743   0.141580   0.042142   0.036034
     19      -0.001661  -0.003398  -0.057235  -0.420849   0.095791  -0.050077
     20      -0.004053  -0.001769  -0.091199  -0.376109   0.143080  -0.031739
     21       0.001103  -0.000014   0.030585   0.034762  -0.016850  -0.009605
     22       0.002291   0.000339   0.061591   0.169712  -0.060974   0.004129
     23       0.003006   0.000442   0.087026   0.208135  -0.079830  -0.001212
     24      -0.000244  -0.002306   0.010010  -0.149120  -0.017758  -0.020108
     25       0.000269   0.002269  -0.004244   0.168035   0.000453   0.026185
     26       0.000187   0.000983   0.001802   0.088917  -0.011559   0.016264
     27       0.000373   0.000051  -0.010310   0.012756   0.010131  -0.004292
     28      -0.001010  -0.000727   0.004869   0.000129  -0.008529  -0.005605
     29      -0.001567  -0.000491  -0.002390   0.016814  -0.015597  -0.001613
     30      -0.003790   0.001656  -0.248079   0.155797  -0.081084  -0.231917
     31       0.014338  -0.001105   0.333583  -0.366264  -0.120045   0.313897
     32       0.019659  -0.000901   0.368137  -0.481341  -0.255254   0.354302
     33       0.010613   0.006845  -0.554076  -0.000619  -0.458811  -0.020261
     34      -0.002581  -0.002670   0.266547  -0.044360   0.232030   0.135392
     35       0.004310   0.001281  -0.035909  -0.065684  -0.006789   0.198580
     36       0.010596   0.004877  -0.290933  -0.007291  -0.087970   0.259438
     37       0.004308   0.000953  -0.011356  -0.024341   0.196333   0.074708
     38       0.016800   0.005823  -0.267858  -0.041237   0.217311   0.342927
     39      -0.057900   0.023342   0.000319  -0.001024  -0.000861  -0.000033
     40       0.023558   0.047179   0.000641  -0.002186   0.000832  -0.002360
     41      -0.006402  -0.036191  -0.001464   0.000844  -0.000110   0.003589
     42       0.105121  -0.472407  -0.010919   0.021843   0.001354   0.006756
     43       0.407494  -0.307947  -0.003359   0.025138   0.003566  -0.008998
     44       0.143903   0.422045   0.012664  -0.011668  -0.000080  -0.012356
     45       0.682689  -0.154875  -0.003874   0.010227   0.009178  -0.010927
     46      -0.195168   0.021847   0.002028   0.001449  -0.003006  -0.004421
     47      -0.096038  -0.329183   0.001026   0.025627  -0.003693  -0.027077
     48      -0.009457   0.313204   0.008258  -0.010243   0.001191  -0.010817
     49      -0.531363  -0.343717  -0.003039   0.024183  -0.007900   0.007138
     50       0.031043   0.387994   0.010509  -0.014267   0.003722  -0.010398
     51      -0.002525   0.001011  -0.000689   0.001707   0.001534  -0.002123
     52       0.001307   0.002263   0.001153  -0.001895   0.000027  -0.003977
     53      -0.000036  -0.001704  -0.000611   0.001815  -0.000170   0.001382
                 48         49         50         51         52         53    
      0       0.000413  -0.000260  -0.000007   0.000821  -0.000162   0.000063
      1       0.000620  -0.000217  -0.000043   0.000854   0.000274  -0.000206
      2      -0.000410   0.000417  -0.000278   0.001146  -0.000118  -0.000366
      3      -0.000214   0.000140   0.000019   0.000497  -0.000233  -0.000065
      4      -0.000159   0.000085  -0.000037   0.000266  -0.000159  -0.000192
      5      -0.000153   0.000107   0.000032   0.000856  -0.000396  -0.000293
      6      -0.000125   0.000050   0.000016  -0.077867   0.010996   0.010023
      7       0.000118  -0.000071  -0.000062   0.007630  -0.002344  -0.002687
      8       0.000157  -0.000138  -0.000021  -0.037105   0.003367   0.002267
      9       0.000091  -0.000095  -0.000045   0.004948   0.006668   0.013274
     10      -0.000036   0.000021   0.000031   0.004455   0.029328   0.030421
     11      -0.000057  -0.000009  -0.000015   0.010516   0.050076   0.057264
     12      -0.000013   0.000057   0.000028   0.001194   0.043891  -0.045751
     13      -0.000009   0.000005   0.000011  -0.001005  -0.039803   0.037465
     14      -0.000001   0.000049   0.000053  -0.000441  -0.022693   0.017537
     15       0.000165  -0.000157  -0.000162   0.000195   0.000183  -0.000364
     16      -0.000185   0.000122   0.000007  -0.000340   0.001226  -0.001517
     17       0.000165  -0.000189  -0.000065  -0.000255   0.002033  -0.002649
     18      -0.000323   0.000283   0.000189   0.000144   0.000612  -0.000588
     19      -0.000005   0.000037  -0.000013  -0.000007  -0.000683   0.000626
     20      -0.000156   0.000167   0.000059   0.000065  -0.000473   0.000359
     21       0.000041  -0.000024  -0.000015  -0.000037  -0.000127   0.000168
     22       0.000093  -0.000141  -0.000113  -0.000035   0.000039  -0.000043
     23       0.000101  -0.000105  -0.000052  -0.000068  -0.000021   0.000060
     24       0.000122  -0.000105  -0.000060  -0.000081   0.000033   0.000016
     25      -0.000071   0.000061   0.000050   0.000066   0.000353  -0.000306
     26      -0.000025   0.000026   0.000011   0.000021   0.000515  -0.000406
     27       0.000023  -0.000023   0.000023  -0.000036  -0.000005  -0.000008
     28       0.000059  -0.000084   0.000132  -0.000084  -0.000027   0.000010
     29       0.000225  -0.000216   0.000150  -0.000158   0.000026   0.000043
     30       0.001074  -0.000099  -0.000053   0.881577  -0.107035  -0.088845
     31      -0.000111  -0.000006  -0.000011  -0.078325   0.011057   0.009656
     32       0.000449  -0.000066  -0.000010   0.429337  -0.049663  -0.040312
     33       0.000014   0.000036   0.000044  -0.029231  -0.106788  -0.120090
     34       0.000039   0.000136   0.000084  -0.073265  -0.322040  -0.348225
     35      -0.000081   0.000307   0.000116  -0.134288  -0.573197  -0.623420
     36      -0.000078  -0.000092   0.000098  -0.015125  -0.523165   0.486396
     37      -0.000019   0.000111  -0.000104   0.012902   0.452665  -0.418124
     38      -0.000013   0.000041  -0.000040   0.006678   0.236849  -0.215257
     39      -0.009964  -0.014765   0.091294   0.000010   0.000010   0.000004
     40      -0.021315  -0.080118  -0.022576  -0.000015  -0.000024  -0.000030
     41      -0.040199   0.046184  -0.008840   0.000077   0.000006   0.000013
     42       0.443957  -0.337162  -0.499895  -0.000574  -0.000052  -0.000028
     43      -0.277687   0.188916   0.315771   0.000367   0.000040   0.000026
     44       0.271008  -0.198623  -0.326040  -0.000429  -0.000056  -0.000025
     45       0.144309   0.209140   0.009910  -0.000150   0.000017   0.000086
     46       0.539993   0.776280  -0.034612  -0.000610   0.000108   0.000339
     47      -0.111791  -0.144122   0.004012  -0.000145  -0.000097  -0.000055
     48      -0.470455   0.304164  -0.591610   0.000495  -0.000180   0.000031
     49      -0.009723  -0.013279  -0.014016  -0.000004   0.000028  -0.000035
     50       0.322237  -0.206391   0.428553  -0.000420   0.000063  -0.000027
     51      -0.000062   0.000043  -0.000203  -0.000029  -0.000010  -0.000005
     52      -0.000118   0.000168   0.000055  -0.000049  -0.000023  -0.000011
     53      -0.000070  -0.000047  -0.000025   0.000024   0.000017   0.000009


-----------
IR SPECTRUM
-----------

 Mode   freq       eps      Int      T**2         TX        TY        TZ
       cm**-1   L/(mol*cm) km/mol    a.u.
----------------------------------------------------------------------------
  7:     31.52   0.002319   11.72  0.022964  (-0.133222  0.072215  0.001040)
  8:     62.97   0.002105   10.64  0.010434  ( 0.077710  0.061682 -0.024296)
  9:     72.07   0.000872    4.41  0.003777  ( 0.006671  0.060715 -0.006771)
 10:    109.87   0.000474    2.40  0.001347  (-0.021439 -0.027918  0.010394)
 11:    115.12   0.001282    6.48  0.003476  (-0.038601  0.044428  0.003534)
 12:    134.27   0.000981    4.96  0.002280  ( 0.007456  0.038373 -0.027413)
 13:    189.38   0.002603   13.15  0.004289  (-0.020802 -0.056259  0.026294)
 14:    237.70   0.000665    3.36  0.000873  (-0.017687  0.012074 -0.020366)
 15:    283.30   0.003908   19.75  0.004305  (-0.006400 -0.064995  0.006326)
 16:    384.75   0.000276    1.39  0.000224  (-0.004371 -0.012929 -0.006126)
 17:    400.22   0.026645  134.65  0.020776  (-0.008105  0.139166 -0.036647)
 18:    445.50   0.042554  215.05  0.029808  ( 0.032231  0.167704 -0.025396)
 19:    466.25   0.005239   26.48  0.003506  ( 0.029838 -0.051146  0.000377)
 20:    567.22   0.003130   15.82  0.001722  ( 0.003610 -0.000325  0.041342)
 21:    586.68   0.007066   35.71  0.003759  (-0.037287 -0.048506 -0.003941)
 22:    675.81   0.069660  352.03  0.032167  ( 0.039374  0.172941 -0.026603)
 23:    685.34   0.055662  281.29  0.025345  (-0.015984 -0.138559  0.076754)
 24:    747.92   0.000640    3.23  0.000267  (-0.002061 -0.003819 -0.015749)
 25:    757.84   0.027021  136.55  0.011127  ( 0.039290  0.084563 -0.049317)
 26:    814.49   0.003092   15.63  0.001185  (-0.011697 -0.013671  0.029342)
 27:    831.71   0.009260   46.80  0.003475  ( 0.024169  0.045534 -0.028584)
 28:    902.09   0.017537   88.63  0.006067  (-0.057380  0.005510 -0.052381)
 29:    961.63   0.004976   25.14  0.001615  (-0.004634  0.030836 -0.025343)
 30:    978.48   0.007566   38.24  0.002413  (-0.038556  0.029362 -0.008028)
 31:   1013.57   0.000619    3.13  0.000191  ( 0.013399 -0.000731  0.003251)
 32:   1027.95   0.002399   12.13  0.000728  (-0.025603 -0.008458  0.001162)
 33:   1066.52   0.123387  623.54  0.036103  ( 0.130635 -0.128516  0.050212)
 34:   1096.97   0.039667  200.46  0.011284  ( 0.067726 -0.047121  0.066911)
 35:   1178.56   0.031282  158.09  0.008283  ( 0.082363 -0.033165 -0.019986)
 36:   1187.10   0.224146  1132.74  0.058923  (-0.178002  0.164699 -0.010617)
 37:   1269.57   0.043570  220.18  0.010710  ( 0.066614 -0.064627  0.045777)
 38:   1293.02   0.192333  971.97  0.046419  ( 0.168701 -0.090244  0.099069)
 39:   1357.59   0.007561   38.21  0.001738  ( 0.021305  0.015054  0.032520)
 40:   1397.70   0.145050  733.03  0.032385  (-0.141838  0.050821 -0.098411)
 41:   1430.96   0.042911  216.85  0.009358  ( 0.060345  0.048887  0.057677)
 42:   1461.17   0.001297    6.56  0.000277  ( 0.015074 -0.006533 -0.002670)
 43:   1470.96   0.002472   12.49  0.000525  (-0.007953 -0.021069  0.004171)
 44:   1489.84   0.015286   77.25  0.003202  ( 0.026251 -0.038462 -0.032145)
 45:   1542.90   0.166333  840.58  0.033642  (-0.014279 -0.117187 -0.140376)
 46:   1626.12   0.086768  438.49  0.016651  (-0.094154  0.083114  0.029639)
 47:   1662.20   0.111616  564.06  0.020955  (-0.046602 -0.095538 -0.098263)
 48:   3049.53   0.025111  126.90  0.002570  (-0.009597 -0.028016 -0.041142)
 49:   3128.97   0.004151   20.98  0.000414  (-0.003983 -0.014665  0.013530)
 50:   3130.06   0.005806   29.34  0.000579  ( 0.023484 -0.004888 -0.001861)
 51:   3203.90   0.005111   25.83  0.000498  (-0.018316 -0.003478 -0.012257)
 52:   3244.99   0.000335    1.69  0.000032  (-0.004454  0.001653  0.003102)
 53:   3256.90   0.000820    4.15  0.000079  ( 0.007087 -0.004763  0.002382)

* The epsilon (eps) is given for a Dirac delta lineshape.
** The dipole moment derivative (T) already includes vibrational overlap.

The first frequency considered to be a vibration is 7
The total number of vibrations considered is 47


--------------------------
THERMOCHEMISTRY AT 298.15K
--------------------------

Temperature         ... 298.15 K
Pressure            ... 1.00 atm
Total Mass          ... 189.18 AMU

Throughout the following assumptions are being made:
  (1) The electronic state is orbitally nondegenerate
  (2) There are no thermally accessible electronically excited states
  (3) Hindered rotations indicated by low frequency modes are not
      treated as such but are treated as vibrations and this may
      cause some error
  (4) All equations used are the standard statistical mechanics
      equations for an ideal gas
  (5) All vibrations are strictly harmonic

freq.      31.52  E(vib)   ...       0.55 
freq.      62.97  E(vib)   ...       0.51 
freq.      72.07  E(vib)   ...       0.50 
freq.     109.87  E(vib)   ...       0.45 
freq.     115.12  E(vib)   ...       0.44 
freq.     134.27  E(vib)   ...       0.42 
freq.     189.38  E(vib)   ...       0.36 
freq.     237.70  E(vib)   ...       0.32 
freq.     283.30  E(vib)   ...       0.28 
freq.     384.75  E(vib)   ...       0.20 
freq.     400.22  E(vib)   ...       0.19 
freq.     445.50  E(vib)   ...       0.17 
freq.     466.25  E(vib)   ...       0.16 
freq.     567.22  E(vib)   ...       0.11 
freq.     586.68  E(vib)   ...       0.11 
freq.     675.81  E(vib)   ...       0.08 
freq.     685.34  E(vib)   ...       0.07 
freq.     747.92  E(vib)   ...       0.06 
freq.     757.84  E(vib)   ...       0.06 
freq.     814.49  E(vib)   ...       0.05 
freq.     831.71  E(vib)   ...       0.04 
freq.     902.09  E(vib)   ...       0.03 
freq.     961.63  E(vib)   ...       0.03 
freq.     978.48  E(vib)   ...       0.03 
freq.    1013.57  E(vib)   ...       0.02 
freq.    1027.95  E(vib)   ...       0.02 
freq.    1066.52  E(vib)   ...       0.02 
freq.    1096.97  E(vib)   ...       0.02 
freq.    1178.56  E(vib)   ...       0.01 
freq.    1187.10  E(vib)   ...       0.01 
freq.    1269.57  E(vib)   ...       0.01 
freq.    1293.02  E(vib)   ...       0.01 
freq.    1357.59  E(vib)   ...       0.01 
freq.    1397.70  E(vib)   ...       0.00 
freq.    1430.96  E(vib)   ...       0.00 
freq.    1461.17  E(vib)   ...       0.00 
freq.    1470.96  E(vib)   ...       0.00 
freq.    1489.84  E(vib)   ...       0.00 
freq.    1542.90  E(vib)   ...       0.00 
freq.    1626.12  E(vib)   ...       0.00 
freq.    1662.20  E(vib)   ...       0.00 
freq.    3049.53  E(vib)   ...       0.00 
freq.    3128.97  E(vib)   ...       0.00 
freq.    3130.06  E(vib)   ...       0.00 
freq.    3203.90  E(vib)   ...       0.00 
freq.    3244.99  E(vib)   ...       0.00 
freq.    3256.90  E(vib)   ...       0.00 

------------
INNER ENERGY
------------

The inner energy is: U= E(el) + E(ZPE) + E(vib) + E(rot) + E(trans)
    E(el)   - is the total energy from the electronic structure calculation
              = E(kin-el) + E(nuc-el) + E(el-el) + E(nuc-nuc)
    E(ZPE)  - the the zero temperature vibrational energy from the frequency calculation
    E(vib)  - the the finite temperature correction to E(ZPE) due to population
              of excited vibrational states
    E(rot)  - is the rotational thermal energy
    E(trans)- is the translational thermal energy

Summary of contributions to the inner energy U:
Electronic energy                ...   -990.26656819 Eh
Zero point energy                ...      0.12080931 Eh      75.81 kcal/mol
Thermal vibrational correction   ...      0.00852490 Eh       5.35 kcal/mol
Thermal rotational correction    ...      0.00141627 Eh       0.89 kcal/mol
Thermal translational correction ...      0.00141627 Eh       0.89 kcal/mol
-----------------------------------------------------------------------
Total thermal energy                   -990.13440145 Eh


Summary of corrections to the electronic energy:
(perhaps to be used in another calculation)
Total thermal correction                  0.01135744 Eh       7.13 kcal/mol
Non-thermal (ZPE) correction              0.12080931 Eh      75.81 kcal/mol
-----------------------------------------------------------------------
Total correction                          0.13216675 Eh      82.94 kcal/mol


--------
ENTHALPY
--------

The enthalpy is H = U + kB*T
                kB is Boltzmann's constant
Total free energy                 ...   -990.13440145 Eh 
Thermal Enthalpy correction       ...      0.00094421 Eh       0.59 kcal/mol
-----------------------------------------------------------------------
Total Enthalpy                    ...   -990.13345724 Eh


Note: Only C1 symmetry has been detected, increase convergence thresholds 
      if your molecule has a higher symmetry. Symmetry factor of 1.0 is   
      used for the rotational entropy correction. 
 

Note: Rotational entropy computed according to Herzberg 
Infrared and Raman Spectra, Chapter V,1, Van Nostrand Reinhold, 1945 
Point Group:  C1, Symmetry Number:   1  
Rotational constants in cm-1:     0.032552     0.027978     0.019333 

Vibrational entropy computed according to the QRRHO of S. Grimme
Chem.Eur.J. 2012 18 9955


-------
ENTROPY
-------

The entropy contributions are T*S = T*(S(el)+S(vib)+S(rot)+S(trans))
     S(el)   - electronic entropy
     S(vib)  - vibrational entropy
     S(rot)  - rotational entropy
     S(trans)- translational entropy
The entropies will be listed as multiplied by the temperature to get
units of energy

Electronic entropy                ...      0.00000000 Eh      0.00 kcal/mol
Vibrational entropy               ...      0.01534877 Eh      9.63 kcal/mol
Rotational entropy                ...      0.01467889 Eh      9.21 kcal/mol
Translational entropy             ...      0.01977419 Eh     12.41 kcal/mol
-----------------------------------------------------------------------
Final entropy term                ...      0.04980185 Eh     31.25 kcal/mol

In case the symmetry of your molecule has not been determined correctly
or in case you have a reason to use a different symmetry number we print 
out the resulting rotational entropy values for sn=1,12 :
 --------------------------------------------------------
|  sn= 1 | S(rot)=       0.01467889 Eh      9.21 kcal/mol|
|  sn= 2 | S(rot)=       0.01402443 Eh      8.80 kcal/mol|
|  sn= 3 | S(rot)=       0.01364160 Eh      8.56 kcal/mol|
|  sn= 4 | S(rot)=       0.01336998 Eh      8.39 kcal/mol|
|  sn= 5 | S(rot)=       0.01315929 Eh      8.26 kcal/mol|
|  sn= 6 | S(rot)=       0.01298715 Eh      8.15 kcal/mol|
|  sn= 7 | S(rot)=       0.01284160 Eh      8.06 kcal/mol|
|  sn= 8 | S(rot)=       0.01271552 Eh      7.98 kcal/mol|
|  sn= 9 | S(rot)=       0.01260431 Eh      7.91 kcal/mol|
|  sn=10 | S(rot)=       0.01250483 Eh      7.85 kcal/mol|
|  sn=11 | S(rot)=       0.01241484 Eh      7.79 kcal/mol|
|  sn=12 | S(rot)=       0.01233269 Eh      7.74 kcal/mol|
 --------------------------------------------------------


-------------------
GIBBS FREE ENERGY
-------------------

The Gibbs free energy is G = H - T*S

Total enthalpy                    ...   -990.13345724 Eh 
Total entropy correction          ...     -0.04980185 Eh    -31.25 kcal/mol
-----------------------------------------------------------------------
Final Gibbs free energy         ...   -990.18325909 Eh

For completeness - the Gibbs free energy minus the electronic energy
G-E(el)                           ...      0.08330911 Eh     52.28 kcal/mol



Timings for individual modules:

Sum of individual times         ...    49483.324 sec (= 824.722 min)
GTO integral calculation        ...       44.515 sec (=   0.742 min)   0.1 %
SCF iterations                  ...      852.023 sec (=  14.200 min)   1.7 %
SCF Gradient evaluation         ...      190.683 sec (=   3.178 min)   0.4 %
Geometry relaxation             ...        1.149 sec (=   0.019 min)   0.0 %
Numerical frequency calculation ...     2395.605 sec (=  39.927 min)   4.8 %
NEB Iterations                  ...    45999.350 sec (= 766.656 min)  93.0 %
                             ****ORCA TERMINATED NORMALLY****
TOTAL RUN TIME: 0 days 13 hours 43 minutes 38 seconds 792 msec
