
                                 *****************
                                 * O   R   C   A *
                                 *****************

                                            #,                                       
                                            ###                                      
                                            ####                                     
                                            #####                                    
                                            ######                                   
                                           ########,                                 
                                     ,,################,,,,,                         
                               ,,#################################,,                 
                          ,,##########################################,,             
                       ,#########################################, ''#####,          
                    ,#############################################,,   '####,        
                  ,##################################################,,,,####,       
                ,###########''''           ''''###############################       
              ,#####''   ,,,,##########,,,,          '''####'''          '####       
            ,##' ,,,,###########################,,,                        '##       
           ' ,,###''''                  '''############,,,                           
         ,,##''                                '''############,,,,        ,,,,,,###''
      ,#''                                            '''#######################'''  
     '                                                          ''''####''''         
             ,#######,   #######,   ,#######,      ##                                
            ,#'     '#,  ##    ##  ,#'     '#,    #''#        ######   ,####,        
            ##       ##  ##   ,#'  ##            #'  '#       #        #'  '#        
            ##       ##  #######   ##           ,######,      #####,   #    #        
            '#,     ,#'  ##    ##  '#,     ,#' ,#      #,         ##   #,  ,#        
             '#######'   ##     ##  '#######'  #'      '#     #####' # '####'        



                  #######################################################
                  #                        -***-                        #
                  #          Department of theory and spectroscopy      #
                  #    Directorship and core code : Frank Neese         #
                  #        Max Planck Institute fuer Kohlenforschung    #
                  #                Kaiser Wilhelm Platz 1               #
                  #                 D-45470 Muelheim/Ruhr               #
                  #                      Germany                        #
                  #                                                     #
                  #                  All rights reserved                #
                  #                        -***-                        #
                  #######################################################


                         Program Version 5.0.4 -  RELEASE  -


 With contributions from (in alphabetic order):
   Daniel Aravena         : Magnetic Suceptibility
   Michael Atanasov       : Ab Initio Ligand Field Theory (pilot matlab implementation)
   Alexander A. Auer      : GIAO ZORA, VPT2 properties, NMR spectrum
   Ute Becker             : Parallelization
   Giovanni Bistoni       : ED, misc. LED, open-shell LED, HFLD
   Martin Brehm           : Molecular dynamics
   Dmytro Bykov           : SCF Hessian
   Vijay G. Chilkuri      : MRCI spin determinant printing, contributions to CSF-ICE
   Dipayan Datta          : RHF DLPNO-CCSD density
   Achintya Kumar Dutta   : EOM-CC, STEOM-CC
   Dmitry Ganyushin       : Spin-Orbit,Spin-Spin,Magnetic field MRCI
   Miquel Garcia          : C-PCM and meta-GGA Hessian, CC/C-PCM, Gaussian charge scheme
   Yang Guo               : DLPNO-NEVPT2, F12-NEVPT2, CIM, IAO-localization
   Andreas Hansen         : Spin unrestricted coupled pair/coupled cluster methods
   Benjamin Helmich-Paris : MC-RPA, TRAH-SCF, COSX integrals
   Lee Huntington         : MR-EOM, pCC
   Robert Izsak           : Overlap fitted RIJCOSX, COSX-SCS-MP3, EOM
   Marcus Kettner         : VPT2
   Christian Kollmar      : KDIIS, OOCD, Brueckner-CCSD(T), CCSD density, CASPT2, CASPT2-K
   Simone Kossmann        : Meta GGA functionals, TD-DFT gradient, OOMP2, MP2 Hessian
   Martin Krupicka        : Initial AUTO-CI
   Lucas Lang             : DCDCAS
   Marvin Lechner         : AUTO-CI (C++ implementation), FIC-MRCC
   Dagmar Lenk            : GEPOL surface, SMD
   Dimitrios Liakos       : Extrapolation schemes; Compound Job, initial MDCI parallelization
   Dimitrios Manganas     : Further ROCIS development; embedding schemes
   Dimitrios Pantazis     : SARC Basis sets
   Anastasios Papadopoulos: AUTO-CI, single reference methods and gradients
   Taras Petrenko         : DFT Hessian,TD-DFT gradient, ASA, ECA, R-Raman, ABS, FL, XAS/XES, NRVS
   Peter Pinski           : DLPNO-MP2, DLPNO-MP2 Gradient
   Christoph Reimann      : Effective Core Potentials
   Marius Retegan         : Local ZFS, SOC
   Christoph Riplinger    : Optimizer, TS searches, QM/MM, DLPNO-CCSD(T), (RO)-DLPNO pert. Triples
   Tobias Risthaus        : Range-separated hybrids, TD-DFT gradient, RPA, STAB
   Michael Roemelt        : Original ROCIS implementation
   Masaaki Saitow         : Open-shell DLPNO-CCSD energy and density
   Barbara Sandhoefer     : DKH picture change effects
   Avijit Sen             : IP-ROCIS
   Kantharuban Sivalingam : CASSCF convergence, NEVPT2, FIC-MRCI
   Bernardo de Souza      : ESD, SOC TD-DFT
   Georgi Stoychev        : AutoAux, RI-MP2 NMR, DLPNO-MP2 response
   Willem Van den Heuvel  : Paramagnetic NMR
   Boris Wezisla          : Elementary symmetry handling
   Frank Wennmohs         : Technical directorship


 We gratefully acknowledge several colleagues who have allowed us to
 interface, adapt or use parts of their codes:
   Stefan Grimme, W. Hujo, H. Kruse, P. Pracht,  : VdW corrections, initial TS optimization,
                  C. Bannwarth, S. Ehlert          DFT functionals, gCP, sTDA/sTD-DF
   Ed Valeev, F. Pavosevic, A. Kumar             : LibInt (2-el integral package), F12 methods
   Garnet Chan, S. Sharma, J. Yang, R. Olivares  : DMRG
   Ulf Ekstrom                                   : XCFun DFT Library
   Mihaly Kallay                                 : mrcc  (arbitrary order and MRCC methods)
   Jiri Pittner, Ondrej Demel                    : Mk-CCSD
   Frank Weinhold                                : gennbo (NPA and NBO analysis)
   Christopher J. Cramer and Donald G. Truhlar   : smd solvation model
   Lars Goerigk                                  : TD-DFT with DH, B97 family of functionals
   V. Asgeirsson, H. Jonsson                     : NEB implementation
   FAccTs GmbH                                   : IRC, NEB, NEB-TS, DLPNO-Multilevel, CI-OPT
                                                   MM, QMMM, 2- and 3-layer-ONIOM, Crystal-QMMM,
                                                   LR-CPCM, SF, NACMEs, symmetry and pop. for TD-DFT,
                                                   nearIR, NL-DFT gradient (VV10), updates on ESD,
                                                   ML-optimized integration grids
   S Lehtola, MJT Oliveira, MAL Marques          : LibXC Library
   Liviu Ungur et al                             : ANISO software


 Your calculation uses the libint2 library for the computation of 2-el integrals
 For citations please refer to: http://libint.valeyev.net

 Your ORCA version has been built with support for libXC version: 5.1.0
 For citations please refer to: https://tddft.org/programs/libxc/

 This ORCA versions uses:
   CBLAS   interface :  Fast vector & matrix operations
   LAPACKE interface :  Fast linear algebra routines
   SCALAPACK package :  Parallel linear algebra routines
   Shared memory     :  Shared parallel matrices
   BLAS/LAPACK       :  OpenBLAS 0.3.15  USE64BITINT DYNAMIC_ARCH NO_AFFINITY SkylakeX SINGLE_THREADED
        Core in use  :  SkylakeX
   Copyright (c) 2011-2014, The OpenBLAS Project




***************************************
The coordinates will be read from file: reactants.xyz
***************************************


Your calculation utilizes the SMD solvation module
Please cite in your paper:
A.V. Marenich, C.J. Cramer, D.G. Truhlar J. Phys. Chem. B, 113, (2009), 6378 

XCFun DFT library Copyright 2009-2010 Ulf Ekstrom and contributors.
See http://admol.org/xcfun for more information.
This is free software; see the source code for copying conditions.
There is ABSOLUTELY NO WARRANTY; not even for MERCHANTABILITY or FITNESS FOR A PARTICULAR PURPOSE.
For details see the documentation.
Scientific users of this library should cite U. Ekstrom, L. Visscher, R. Bast, A. J. Thorvaldsen and K. Ruud;
J.Chem.Theor.Comp. 2010, DOI: 10.1021/ct100117s
XCFun Version 0.99 

================================================================================

----- Orbital basis set information -----
Your calculation utilizes the basis: 6-311++G**
   H, Li - Ne  : R. Krishnan, J. S. Binkley, R. Seeger and J. A. Pople, J. Chem. Phys. 72, 650 (1980).
   Na - Ar     : A. D. McLean and G. S. Chandler J. Chem. Phys. 72, 5639, (1980).
   K  - Ca     : J.-P. Blaudeau, M. P. McGrath, L. A. Curtiss and L. Radom, J. Chem. Phys. 107, 5016 (1997).
   Ga - Kr     : L. A. Curtiss, M. P. McGrath, J.-P. Blandeau, N. E. Davis, R. C. Binning and L. Radom, J. Chem. Phys. 103, 6104 (1995).
   Pol./Diff.
   H, Li - Cl  : T. Clark, J. Chandrasekhar and P. v. R. Schleyer, J. Comp. Chem. 4, 294 (1983).
   H - Ne      : M. J. Frisch, J. A. Pople and J. S. Binkley, J. Chem. Phys. 80, 3265 (1984).

----- AuxJ basis set information -----
Your calculation utilizes the auxiliary basis: def2/J
   F. Weigend, Phys. Chem. Chem. Phys. 8, 1057 (2006).

================================================================================
                                        WARNINGS
                       Please study these warnings very carefully!
================================================================================


WARNING: Geometry Optimization
  ===> : Switching off AutoStart
         For restart on a previous wavefunction, please use MOREAD

INFO   : the flag for use of the SHARK integral package has been found!

================================================================================
                                       INPUT FILE
================================================================================
NAME = structure_opt.inp
|  1> !wb97x 6-311++G** OPT CPCM(WATER)
|  2> %maxcore  3500
|  3> %pal
|  4> nprocs 24
|  5> end
|  6> %cpcm
|  7> smd true
|  8> SMDsolvent "water"
|  9> end
| 10> %geom
| 11> ConstrainFragments {1} end
| 12> ConstrainFragments {4} end
| 13> ConnectFragments
| 14> { 1 2 C 5 7 }
| 15> { 1 2 C 0 9 }
| 16> { 2 3 C 13 5 }
| 17> { 3 4 C 13 17 }
| 18> end
| 19> end
| 20> * XYZfile -1 1 reactants.xyz
| 21> %geom
| 22> Fragments
| 23> 1 {0:5} end
| 24> 2 {6:12} end
| 25> 3 {13:16} end
| 26> 4 {17} end
| 27> end
| 28> end
| 29> 
| 30>                          ****END OF INPUT****
================================================================================

                       *****************************
                       * Geometry Optimization Run *
                       *****************************

Geometry optimization settings:
Update method            Update   .... BFGS
Choice of coordinates    CoordSys .... Z-matrix Internals
Initial Hessian          InHess   .... Almoef's Model

Convergence Tolerances:
Energy Change            TolE     ....  5.0000e-06 Eh
Max. Gradient            TolMAXG  ....  3.0000e-04 Eh/bohr
RMS Gradient             TolRMSG  ....  1.0000e-04 Eh/bohr
Max. Displacement        TolMAXD  ....  4.0000e-03 bohr
RMS Displacement         TolRMSD  ....  2.0000e-03 bohr
Strict Convergence                ....  False
------------------------------------------------------------------------------
                        ORCA OPTIMIZATION COORDINATE SETUP
------------------------------------------------------------------------------

The optimization will be done in new redundant internal coordinates
Making redundant internal coordinates   ...  (new redundants) done
Evaluating the initial hessian          ...  (Almloef) done
Evaluating the coordinates              ...  done
Calculating the B-matrix                .... done
Calculating the G-matrix                .... done
Diagonalizing the G-matrix              .... done
Imposing constraints:
 Iter   0:  RMS(Cart)=    0.0000000000 RMS(Int)=    0.0000000000
CONVERGED
Small eigenvalue found = 5.999e-03
Small eigenvalue found = 1.060e-02
Small eigenvalue found = 1.720e-02
The first mode is                       ....   62
The number of degrees of freedom        ....   48
Storing new coordinates                 .... done

    -----------------------------------------------------------------
                    Redundant Internal Coordinates


    -----------------------------------------------------------------
         Definition                    Initial Value    Approx d2E/dq
    -----------------------------------------------------------------
      1. B(N   1,C   0)                  1.3611         0.622347   
      2. B(C   2,N   1)                  1.3582         0.628875   
      3. B(C   3,C   2)                  1.3949         0.613658   
      4. B(C   4,C   3)                  1.3934         0.616971   
      5. B(C   5,C   0)                  1.4122         0.575774   
      6. B(C   5,C   4)                  1.4061         0.588917   
      7. B(O   7,C   5)                  2.3435         0.016853 C 
      8. B(O   7,N   6)                  1.2480         0.844503   
      9. B(O   8,N   6)                  1.3769         0.525866   
     10. B(F   9,C   0)                  1.3500         0.602260 C 
     11. B(F   9,N   6)                  2.8678         0.002044   
     12. B(F   9,O   7)                  2.5821         0.005837   
     13. B(H  11,H  10)                  2.4818         0.000415   
     14. B(H  12,O   8)                  2.5152         0.001717   
     15. B(H  12,H  11)                  2.4663         0.000439   
     16. B(H  12,N   6)                  2.7029         0.000861   
     17. B(C  13,H  11)                  7.1156         0.000000 C 
     18. B(H  14,C  13)                  1.0936         0.355392   
     19. B(H  15,C  13)                  1.0935         0.355528   
     20. B(H  16,C  13)                  1.0940         0.354801   
     21. B(S  17,C  13)                  1.8030         0.369495 C 
     22. A(N   1,C   0,F   9)          118.6704         0.424592 C 
     23. A(C   5,C   0,F   9)          121.1725         0.421471 C 
     24. A(N   1,C   0,C   5)          120.1571         0.425830   
     25. A(C   0,N   1,C   2)          121.9524         0.429796   
     26. A(N   1,C   2,C   3)          120.0262         0.431531   
     27. A(C   2,C   3,C   4)          119.3498         0.432882   
     28. A(C   3,C   4,C   5)          120.4718         0.429694   
     29. A(C   4,C   5,O   7)          147.4261         0.238582 C 
     30. A(C   0,C   5,O   7)           94.5313         0.237820 C 
     31. A(C   0,C   5,C   4)          118.0425         0.424407   
     32. A(O   8,N   6,H  12)           67.2752         0.152046   
     33. A(O   7,N   6,H  12)          174.2234         0.159181   
     34. A(O   7,N   6,F   9)           64.2090         0.186619   
     35. A(F   9,N   6,H  12)          110.0144         0.106848   
     36. A(O   7,N   6,O   8)          118.5014         0.433822   
     37. A(N   6,O   7,F   9)           89.9947         0.212791   
     38. A(C   5,O   7,N   6)           31.7456         0.248611 C 
     39. A(C   5,O   7,F   9)           58.2491         0.140475 C 
     40. A(N   6,O   8,H  12)           82.3972         0.162696   
     41. A(N   6,F   9,O   7)           25.7962         0.120482   
     42. A(C   0,F   9,O   7)           86.0471         0.203997 C 
     43. A(C   0,F   9,N   6)           60.2509         0.179684 C 
     44. A(H  10,H  11,C  13)           81.7229         0.089233 C 
     45. A(H  10,H  11,H  12)          119.7063         0.095112   
     46. A(H  12,H  11,C  13)           94.5829         0.089236 C 
     47. A(N   6,H  12,O   8)           30.3275         0.103999   
     48. A(N   6,H  12,H  11)          126.7169         0.097913   
     49. A(O   8,H  12,H  11)          157.0445         0.099419   
     50. A(H  14,C  13,H  15)          109.0462         0.289658   
     51. A(H  14,C  13,H  16)          108.9502         0.289565   
     52. A(H  15,C  13,H  16)          108.9632         0.289582   
     53. A(H  11,C  13,H  14)           96.4319         0.090342 C 
     54. A(H  11,C  13,S  17)           40.0738         0.090676   
     55. A(H  11,C  13,H  15)           80.1738         0.090342 C 
     56. A(H  11,C  13,H  16)          147.4926         0.090342 C 
     57. A(H  14,C  13,S  17)          109.9795         0.339467 C 
     58. A(H  15,C  13,S  17)          109.9840         0.339488 C 
     59. A(H  16,C  13,S  17)          109.8914         0.339372 C 
     60. D(C   2,N   1,C   0,C   5)     -0.1041         0.028432   
     61. D(C   2,N   1,C   0,F   9)    179.9112         0.028432 C 
     62. D(C   3,C   2,N   1,C   0)      0.1066         0.025783   
     63. D(C   4,C   3,C   2,N   1)     -0.0956         0.020965   
     64. D(C   5,C   4,C   3,C   2)      0.0854         0.021202   
     65. D(C   4,C   5,C   0,N   1)      0.0896         0.022761   
     66. D(C   0,C   5,C   4,C   3)     -0.0818         0.021656   
     67. D(O   7,C   5,C   4,C   3)   -179.9036         0.021656 C 
     68. D(O   7,C   5,C   0,F   9)     -0.0223         0.022761 C 
     69. D(C   4,C   5,C   0,F   9)   -179.9260         0.022761 C 
     70. D(O   7,C   5,C   0,N   1)    179.9933         0.022761 C 
     71. D(F   9,O   7,C   5,C   0)      0.0117         0.001517 C 
     72. D(C   5,O   7,N   6,H  12)      0.1876         0.079747 C 
     73. D(N   6,O   7,C   5,C   0)   -179.9521         0.001517 C 
     74. D(F   9,O   7,C   5,C   4)    179.8539         0.001517 C 
     75. D(F   9,O   7,N   6,O   8)    179.9932         0.079747   
     76. D(F   9,O   7,N   6,H  12)      0.1568         0.079747   
     77. D(C   5,O   7,N   6,O   8)   -179.9761         0.079747 C 
     78. D(N   6,O   7,C   5,C   4)     -0.1099         0.001517 C 
     79. D(C   5,O   7,N   6,F   9)      0.0308         0.079747 C 
     80. D(H  12,O   8,N   6,O   7)   -179.9821         0.025649   
     81. D(C   0,F   9,O   7,C   5)     -0.0123         0.001503 C 
     82. D(N   6,F   9,C   0,N   1)   -179.9918         0.032536 C 
     83. D(N   6,F   9,C   0,C   5)      0.0236         0.032536 C 
     84. D(O   7,F   9,C   0,N   1)   -179.9952         0.032536 C 
     85. D(O   7,F   9,N   6,H  12)   -179.9832         0.001500   
     86. D(C   0,F   9,N   6,H  12)      0.0246         0.001500 C 
     87. D(N   6,F   9,O   7,C   5)     -0.0190         0.001503 C 
     88. D(C   0,F   9,O   7,N   6)      0.0068         0.001503 C 
     89. D(O   7,F   9,C   0,C   5)      0.0202         0.032536 C 
     90. D(C   0,F   9,N   6,O   7)   -179.9922         0.001500 C 
     91. D(O   7,F   9,O   8,H  12)   -179.9897         0.001500   
     92. D(C   0,F   9,O   8,H  12)      0.0232         0.001500 C 
     93. D(O   8,H  12,H  11,C  13)     83.1476         0.001502 C 
     94. D(O   8,H  12,N   6,F   9)    179.9943         0.001501   
     95. D(H  11,H  12,N   6,O   7)     -0.1748         0.001501   
     96. D(H  11,H  12,N   6,O   8)    179.9811         0.001501   
     97. D(H  11,H  12,N   6,F   9)     -0.0245         0.001501   
     98. D(H  11,H  12,O   8,N   6)     -0.0388         0.001502   
     99. D(N   6,H  12,H  11,H  10)      0.0466         0.001502   
    100. D(N   6,H  12,H  11,C  13)     83.1232         0.001502 C 
    101. D(O   8,H  12,N   6,O   7)    179.8441         0.001501   
    102. D(O   8,H  12,H  11,H  10)      0.0710         0.001502   
    103. D(H  14,C  13,H  11,H  12)   -174.4040         0.001500 C 
    104. D(H  14,C  13,H  11,H  10)    -55.0164         0.001500 C 
    105. D(H  15,C  13,H  11,H  12)     77.3099         0.001500 C 
    106. D(H  15,C  13,H  11,H  10)   -163.3025         0.001500 C 
    107. D(H  16,C  13,H  11,H  12)    -32.6822         0.001500 C 
    108. D(H  16,C  13,H  11,H  10)     86.7054         0.001500 C 
    109. D(S  17,C  13,H  11,H  12)    -60.8185         0.001500   
    110. D(S  17,C  13,H  11,H  10)     58.5690         0.001500   
    -----------------------------------------------------------------

Number of atoms                         .... 18
Number of degrees of freedom            .... 110

         *************************************************************
         *                GEOMETRY OPTIMIZATION CYCLE   1            *
         *************************************************************
---------------------------------
CARTESIAN COORDINATES (ANGSTROEM)
---------------------------------
  C      0.000000    0.000000    1.820000
  N      1.178000   -0.196000    2.473000
  C      1.255000   -0.207000    3.829000
  C      0.105000   -0.016000    4.595000
  C     -1.116000    0.187000    3.955000
  C     -1.192000    0.198000    2.551000
  N     -2.456000    0.409000    1.893000
  O     -2.541000    0.423000    0.648000
  O     -3.602000    0.600000    2.632000
  F      0.000000    0.000000    0.470000
  H      2.209000   -0.366000    4.313000
  H      0.163000   -0.026000    5.676000
  H     -2.005000    0.335000    4.557000
  C      2.201000    6.773000    5.174000
  H      3.210000    6.628000    5.570000
  H      1.498000    6.850000    6.008000
  H      2.175000    7.704000    4.600000
  S      1.750000    5.386000    4.114000

----------------------------
CARTESIAN COORDINATES (A.U.)
----------------------------
  NO LB      ZA    FRAG     MASS         X           Y           Z
   0 C     6.0000    1    12.011    0.000000    0.000000    3.439302
   1 N     7.0000    1    14.007    2.226097   -0.370386    4.673293
   2 C     6.0000    1    12.011    2.371606   -0.391173    7.235761
   3 C     6.0000    1    12.011    0.198421   -0.030236    8.683292
   4 C     6.0000    1    12.011   -2.108934    0.353379    7.473867
   5 C     6.0000    1    12.011   -2.252554    0.374166    4.820691
   6 N     7.0000    2    14.007   -4.641167    0.772898    3.577252
   7 O     8.0000    2    15.999   -4.801794    0.799354    1.224543
   8 O     8.0000    2    15.999   -6.806794    1.133836    4.973759
   9 F     9.0000    2    18.998    0.000000    0.000000    0.888171
  10 H     1.0000    2     1.008    4.174405   -0.691640    8.150389
  11 H     1.0000    2     1.008    0.308025   -0.049133   10.726086
  12 H     1.0000    2     1.008   -3.788901    0.633058    8.611482
  13 C     6.0000    3    12.011    4.159287   12.799115    9.777443
  14 H     1.0000    3     1.008    6.066021   12.525105   10.525775
  15 H     1.0000    3     1.008    2.830810   12.944624   11.353475
  16 H     1.0000    3     1.008    4.110154   14.558450    8.692740
  17 S    16.0000    4    32.060    3.307021   10.178065    7.774333

----------------------------------------------
CARTESIAN COORDINATES OF FRAGMENTS (ANGSTROEM)
----------------------------------------------

 FRAGMENT 1 
  C     0.000000    0.000000    1.820000
  N     1.178000   -0.196000    2.473000
  C     1.255000   -0.207000    3.829000
  C     0.105000   -0.016000    4.595000
  C    -1.116000    0.187000    3.955000
  C    -1.192000    0.198000    2.551000

 FRAGMENT 2 
  N    -2.456000    0.409000    1.893000
  O    -2.541000    0.423000    0.648000
  O    -3.602000    0.600000    2.632000
  F     0.000000    0.000000    0.470000
  H     2.209000   -0.366000    4.313000
  H     0.163000   -0.026000    5.676000
  H    -2.005000    0.335000    4.557000

 FRAGMENT 3 
  C     2.201000    6.773000    5.174000
  H     3.210000    6.628000    5.570000
  H     1.498000    6.850000    6.008000
  H     2.175000    7.704000    4.600000

 FRAGMENT 4 
  S     1.750000    5.386000    4.114000

--------------------------------
INTERNAL COORDINATES (ANGSTROEM)
--------------------------------
 C      0   0   0     0.000000000000     0.00000000     0.00000000
 N      1   0   0     1.361069065110     0.00000000     0.00000000
 C      2   1   0     1.358228993948   121.95243626     0.00000000
 C      3   2   1     1.394896770374   120.02620694     0.10655554
 C      4   3   2     1.393431017309   119.34983770   359.90435571
 C      5   4   3     1.406098502951   120.47178172     0.08537773
 N      6   5   4     1.440548853736   120.30882193   180.03842131
 O      7   6   5     1.247976762604   121.13704526   179.93147861
 O      7   6   5     1.376923382037   120.36156660   359.90709941
 F      1   2   3     1.350000000000   118.67037638   179.91115691
 H      3   2   1     1.081504969938   119.86701156   179.98746005
 H      4   3   2     1.082601034546   120.19197482   179.89186186
 H      5   4   3     1.083803026384   118.91636700   180.02085854
 C     12   4   3     7.115606017761    86.33478952    82.54706909
 H     14  12   4     1.093582187126    96.43185711   244.98120456
 H     14  12   4     1.093477937592    80.17384375   136.69515800
 H     14  12   4     1.094035191390   147.49260214    26.70306789
 S     14  12   4     1.802989184660    40.07379527   358.56668061

---------------------------
INTERNAL COORDINATES (A.U.)
---------------------------
 C      0   0   0     0.000000000000     0.00000000     0.00000000
 N      1   0   0     2.572047782411     0.00000000     0.00000000
 C      2   1   0     2.566680825712   121.95243626     0.00000000
 C      3   2   1     2.635972881098   120.02620694     0.10655554
 C      4   3   2     2.633203009226   119.34983770   359.90435571
 C      5   4   3     2.657141087893   120.47178172     0.08537773
 N      6   5   4     2.722242816095   120.30882193   180.03842131
 O      7   6   5     2.358334302820   121.13704526   179.93147861
 O      7   6   5     2.602008099442   120.36156660   359.90709941
 F      1   2   3     2.551130280794   118.67037638   179.91115691
 H      3   2   1     2.043748205657   119.86701156   179.98746005
 H      4   3   2     2.045819467592   120.19197482   179.89186186
 H      5   4   3     2.048090902982   118.91636700   180.02085854
 C     12   4   3    13.446546650451    86.33478952    82.54706909
 H     14  12   4     2.066570838603    96.43185711   244.98120456
 H     14  12   4     2.066373835534    80.17384375   136.69515800
 H     14  12   4     2.067426892599   147.49260214    26.70306789
 S     14  12   4     3.407155781429    40.07379527   358.56668061

---------------------
BASIS SET INFORMATION
---------------------
There are 6 groups of distinct atoms

 Group   1 Type C   : 12s6p1d contracted to 5s4p1d pattern {63111/3111/1}
 Group   2 Type N   : 12s6p1d contracted to 5s4p1d pattern {63111/3111/1}
 Group   3 Type O   : 12s6p1d contracted to 5s4p1d pattern {63111/3111/1}
 Group   4 Type F   : 12s6p1d contracted to 5s4p1d pattern {63111/3111/1}
 Group   5 Type H   : 6s1p contracted to 4s1p pattern {3111/1}
 Group   6 Type S   : 14s10p1d contracted to 7s6p1d pattern {6311111/421111/1}

Atom   0C    basis set group =>   1
Atom   1N    basis set group =>   2
Atom   2C    basis set group =>   1
Atom   3C    basis set group =>   1
Atom   4C    basis set group =>   1
Atom   5C    basis set group =>   1
Atom   6N    basis set group =>   2
Atom   7O    basis set group =>   3
Atom   8O    basis set group =>   3
Atom   9F    basis set group =>   4
Atom  10H    basis set group =>   5
Atom  11H    basis set group =>   5
Atom  12H    basis set group =>   5
Atom  13C    basis set group =>   1
Atom  14H    basis set group =>   5
Atom  15H    basis set group =>   5
Atom  16H    basis set group =>   5
Atom  17S    basis set group =>   6
---------------------------------
AUXILIARY/J BASIS SET INFORMATION
---------------------------------
There are 6 groups of distinct atoms

 Group   1 Type C   : 12s5p4d2f1g contracted to 6s4p3d1f1g pattern {711111/2111/211/2/1}
 Group   2 Type N   : 12s5p4d2f1g contracted to 6s4p3d1f1g pattern {711111/2111/211/2/1}
 Group   3 Type O   : 12s5p4d2f1g contracted to 6s4p3d1f1g pattern {711111/2111/211/2/1}
 Group   4 Type F   : 12s5p4d2f1g contracted to 6s4p3d1f1g pattern {711111/2111/211/2/1}
 Group   5 Type H   : 5s2p1d contracted to 3s1p1d pattern {311/2/1}
 Group   6 Type S   : 14s5p5d2f1g contracted to 8s4p3d1f1g pattern {71111111/2111/311/2/1}

Atom   0C    basis set group =>   1
Atom   1N    basis set group =>   2
Atom   2C    basis set group =>   1
Atom   3C    basis set group =>   1
Atom   4C    basis set group =>   1
Atom   5C    basis set group =>   1
Atom   6N    basis set group =>   2
Atom   7O    basis set group =>   3
Atom   8O    basis set group =>   3
Atom   9F    basis set group =>   4
Atom  10H    basis set group =>   5
Atom  11H    basis set group =>   5
Atom  12H    basis set group =>   5
Atom  13C    basis set group =>   1
Atom  14H    basis set group =>   5
Atom  15H    basis set group =>   5
Atom  16H    basis set group =>   5
Atom  17S    basis set group =>   6


           ************************************************************
           *        Program running with 24 parallel MPI-processes    *
           *              working on a common directory               *
           ************************************************************
------------------------------------------------------------------------------
                           ORCA GTO INTEGRAL CALCULATION
                           -- RI-GTO INTEGRALS CHOSEN --
------------------------------------------------------------------------------
------------------------------------------------------------------------------
                   ___                                                        
                  /   \      - P O W E R E D   B Y -                         
                 /     \                                                     
                 |  |  |   _    _      __       _____    __    __             
                 |  |  |  | |  | |    /  \     |  _  \  |  |  /  |          
                  \  \/   | |  | |   /    \    | | | |  |  | /  /          
                 / \  \   | |__| |  /  /\  \   | |_| |  |  |/  /          
                |  |  |   |  __  | /  /__\  \  |    /   |      \           
                |  |  |   | |  | | |   __   |  |    \   |  |\   \          
                \     /   | |  | | |  |  |  |  | |\  \  |  | \   \       
                 \___/    |_|  |_| |__|  |__|  |_| \__\ |__|  \__/        
                                                                              
                      - O R C A' S   B I G   F R I E N D -                    
                                      &                                       
                       - I N T E G R A L  F E E D E R -                       
                                                                              
 v1 FN, 2020, v2 2021                                                         
------------------------------------------------------------------------------


Reading SHARK input file structure_opt.SHARKINP.tmp ... ok
----------------------
SHARK INTEGRAL PACKAGE
----------------------

Number of atoms                             ...     18
Number of basis functions                   ...    314
Number of shells                            ...    154
Maximum angular momentum                    ...      2
Integral batch strategy                     ... SHARK/LIBINT Hybrid
RI-J (if used) integral strategy            ... SPLIT-RIJ (Revised 2003 algorithm where possible)
Printlevel                                  ...      1
Contraction scheme used                     ... SEGMENTED contraction
Coulomb Range Separation                    ... NOT USED
Exchange Range Separation                   ... Long Range
   Mu parameter                             ...  0.300000
   Scaling (regular/separated)              ...  0.157706  0.842294
Finite Nucleus Model                        ... NOT USED
Auxiliary Coulomb fitting basis             ... AVAILABLE
   # of basis functions in Aux-J            ...    656
   # of shells in Aux-J                     ...    212
   Maximum angular momentum in Aux-J        ...      4
Auxiliary J/K fitting basis                 ... NOT available
Auxiliary Correlation fitting basis         ... NOT available
Auxiliary 'external' fitting basis          ... NOT available
Integral threshold                          ...     2.500000e-11
Primitive cut-off                           ...     2.500000e-12
Primitive pair pre-selection threshold      ...     2.500000e-12

Calculating pre-screening integrals         ... done (  0.0 sec) Dimension = 154
Organizing shell pair data                  ... done (  0.1 sec)
Shell pair information
Total number of shell pairs                 ...     11935
Shell pairs after pre-screening             ...      9198
Total number of primitive shell pairs       ...     38500
Primitive shell pairs kept                  ...     20923
          la=0 lb=0:   2840 shell pairs
          la=1 lb=0:   3782 shell pairs
          la=1 lb=1:   1298 shell pairs
          la=2 lb=0:    729 shell pairs
          la=2 lb=1:    497 shell pairs
          la=2 lb=2:     52 shell pairs

Calculating one electron integrals          ... done (  0.0 sec)
Calculating RI/J V-Matrix + Cholesky decomp.... done (  0.2 sec)
Calculating Nuclear repulsion               ... done (  0.0 sec) ENN=    688.543966302555 Eh

SHARK setup successfully completed in   2.2 seconds

Maximum memory used throughout the entire GTOINT-calculation: 17.8 MB


           ************************************************************
           *        Program running with 24 parallel MPI-processes    *
           *              working on a common directory               *
           ************************************************************
-------------------------------------------------------------------------------
                                 ORCA SCF
-------------------------------------------------------------------------------

------------
SCF SETTINGS
------------
Hamiltonian:
 Density Functional     Method          .... DFT(GTOs)
 Exchange Functional    Exchange        .... WB97X
 Correlation Functional Correlation     .... WB97X
 Gradients option       PostSCFGGA      .... off
 Hybrid DFT is turned on
   Fraction HF Exchange ScalHFX         ....  0.157706
   Scaling of DF-GGA-X  ScalDFX         ....  0.000000
   Scaling of DF-GGA-C  ScalDFC         ....  1.000000
   Scaling of DF-LDA-C  ScalLDAC        ....  1.000000
   Perturbative correction              ....  0.000000
   Density functional embedding theory  .... OFF
 Long-range corrected/Screened/Range-Separated Hybrid DFT is turned on
   Amount of maximum screened exact exchange              ....  0.842294
   Range separation parameter mu (erf(mu*r12)/r12)        ....  0.300000
 RI-approximation to the Coulomb term is turned on
   Number of AuxJ basis functions       .... 656
   RIJ-COSX (HFX calculated with COS-X)).... on


General Settings:
 Integral files         IntName         .... structure_opt
 Hartree-Fock type      HFTyp           .... RHF
 Total Charge           Charge          ....   -1
 Multiplicity           Mult            ....    1
 Number of Electrons    NEL             ....   98
 Basis Dimension        Dim             ....  314
 Nuclear Repulsion      ENuc            ....    688.5439663026 Eh

Convergence Acceleration:
 DIIS                   CNVDIIS         .... on
   Start iteration      DIISMaxIt       ....    12
   Startup error        DIISStart       ....  0.200000
   # of expansion vecs  DIISMaxEq       ....     5
   Bias factor          DIISBfac        ....   1.050
   Max. coefficient     DIISMaxC        ....  10.000
 Trust-Rad. Augm. Hess. CNVTRAH         .... auto
   Auto Start mean grad. ratio tolernc. ....  1.125000
   Auto Start start iteration           ....    20
   Auto Start num. interpolation iter.  ....    10
   Max. Number of Micro iterations      ....    16
   Max. Number of Macro iterations      .... Maxiter - #DIIS iter
   Number of Davidson start vectors     ....     2
   Converg. threshold I  (grad. norm)   ....   1.000e-05
   Converg. threshold II (energy diff.) ....   1.000e-08
   Grad. Scal. Fac. for Micro threshold ....   0.100
   Minimum threshold for Micro iter.    ....   0.010
   NR start threshold (gradient norm)   ....   0.001
   Initial trust radius                 ....   0.400
   Minimum AH scaling param. (alpha)    ....   1.000
   Maximum AH scaling param. (alpha)    .... 1000.000
   Orbital update algorithm             .... Taylor
   White noise on init. David. guess    .... on
   Maximum white noise                  ....   0.010
   Quad. conv. algorithm                .... NR
 SOSCF                  CNVSOSCF        .... on
   Start iteration      SOSCFMaxIt      ....   150
   Startup grad/error   SOSCFStart      ....  0.003300
 Level Shifting         CNVShift        .... on
   Level shift para.    LevelShift      ....    0.2500
   Turn off err/grad.   ShiftErr        ....    0.0010
 Zerner damping         CNVZerner       .... off
 Static damping         CNVDamp         .... on
   Fraction old density DampFac         ....    0.7000
   Max. Damping (<1)    DampMax         ....    0.9800
   Min. Damping (>=0)   DampMin         ....    0.0000
   Turn off err/grad.   DampErr         ....    0.1000
 Fernandez-Rico         CNVRico         .... off

SCF Procedure:
 Maximum # iterations   MaxIter         ....   125
 SCF integral mode      SCFMode         .... Direct
   Integral package                     .... SHARK and LIBINT hybrid scheme
 Reset frequency        DirectResetFreq ....    20
 Integral Threshold     Thresh          ....  2.500e-11 Eh
 Primitive CutOff       TCut            ....  2.500e-12 Eh

Convergence Tolerance:
 Convergence Check Mode ConvCheckMode   .... Total+1el-Energy
 Convergence forced     ConvForced      .... 0
 Energy Change          TolE            ....  1.000e-08 Eh
 1-El. energy change                    ....  1.000e-05 Eh
 Orbital Gradient       TolG            ....  1.000e-05
 Orbital Rotation angle TolX            ....  1.000e-05
 DIIS Error             TolErr          ....  5.000e-07


Diagonalization of the overlap matrix:
Smallest eigenvalue                        ... 4.398e-06
Time for diagonalization                   ...    0.015 sec
Threshold for overlap eigenvalues          ... 1.000e-08
Number of eigenvalues below threshold      ... 0
Time for construction of square roots      ...    0.018 sec
Total time needed                          ...    0.035 sec

Time for model grid setup =    0.467 sec

------------------------------
INITIAL GUESS: MODEL POTENTIAL
------------------------------
Loading Hartree-Fock densities                     ... done
Calculating cut-offs                               ... done
Initializing the effective Hamiltonian             ... done
Setting up the integral package (SHARK)            ... done
Starting the Coulomb interaction                   ... done (   0.1 sec)
Reading the grid                                   ... done
Mapping shells                                     ... done
Starting the XC term evaluation                    ... done (   0.0 sec)
  promolecular density results
     # of electrons  =     96.995647841
     EX              =    -96.552373842
     EC              =     -3.327215980
     EX+EC           =    -99.879589823
Transforming the Hamiltonian                       ... done (   0.0 sec)
Diagonalizing the Hamiltonian                      ... done (   0.0 sec)
Back transforming the eigenvectors                 ... done (   0.0 sec)
Now organizing SCF variables                       ... done
                      ------------------
                      INITIAL GUESS DONE (   0.6 sec)
                      ------------------
-------------------
DFT GRID GENERATION
-------------------

General Integration Accuracy     IntAcc      ... 4.388
Radial Grid Type                 RadialGrid  ... OptM3 with GC (2021)
Angular Grid (max. ang.)         AngularGrid ... 4 (Lebedev-302)
Angular grid pruning method      GridPruning ... 4 (adaptive)
Weight generation scheme         WeightScheme... Becke
Basis function cutoff            BFCut       ... 1.0000e-11
Integration weight cutoff        WCut        ... 1.0000e-14
Angular grids for H and He will be reduced by one unit
Partially contracted basis set               ... off
Rotationally invariant grid construction     ... off

Total number of grid points                  ...    98123
Total number of batches                      ...     1541
Average number of points per batch           ...       63
Average number of grid points per atom       ...     5451
Time for grid setup =    0.615 sec

--------------------
COSX GRID GENERATION
--------------------

GRIDX 1
-------
General Integration Accuracy     IntAcc      ... 3.816
Radial Grid Type                 RadialGrid  ... OptM3 with GC (2021)
Angular Grid (max. ang.)         AngularGrid ... 1 (Lebedev-50)
Angular grid pruning method      GridPruning ... 4 (adaptive)
Weight generation scheme         WeightScheme... Becke
Basis function cutoff            BFCut       ... 1.0000e-11
Integration weight cutoff        WCut        ... 1.0000e-14
Angular grids for H and He will be reduced by one unit
Partially contracted basis set               ... on
Rotationally invariant grid construction     ... off

Total number of grid points                  ...    12249
Total number of batches                      ...      202
Average number of points per batch           ...       60
Average number of grid points per atom       ...      680
UseSFitting                                  ... on

GRIDX 2
-------
General Integration Accuracy     IntAcc      ... 4.020
Radial Grid Type                 RadialGrid  ... OptM3 with GC (2021)
Angular Grid (max. ang.)         AngularGrid ... 2 (Lebedev-110)
Angular grid pruning method      GridPruning ... 4 (adaptive)
Weight generation scheme         WeightScheme... Becke
Basis function cutoff            BFCut       ... 1.0000e-11
Integration weight cutoff        WCut        ... 1.0000e-14
Angular grids for H and He will be reduced by one unit
Partially contracted basis set               ... on
Rotationally invariant grid construction     ... off

Total number of grid points                  ...    31021
Total number of batches                      ...      493
Average number of points per batch           ...       62
Average number of grid points per atom       ...     1723
UseSFitting                                  ... on

GRIDX 3
-------
General Integration Accuracy     IntAcc      ... 4.338
Radial Grid Type                 RadialGrid  ... OptM3 with GC (2021)
Angular Grid (max. ang.)         AngularGrid ... 3 (Lebedev-194)
Angular grid pruning method      GridPruning ... 4 (adaptive)
Weight generation scheme         WeightScheme... Becke
Basis function cutoff            BFCut       ... 1.0000e-11
Integration weight cutoff        WCut        ... 1.0000e-14
Angular grids for H and He will be reduced by one unit
Partially contracted basis set               ... on
Rotationally invariant grid construction     ... off

Total number of grid points                  ...    68966
Total number of batches                      ...     1086
Average number of points per batch           ...       63
Average number of grid points per atom       ...     3831
UseSFitting                                  ... on

Time for X-Grid setup             =    1.197 sec


--------------------
CPCM SOLVATION MODEL
--------------------
CPCM parameters:
  Epsilon                                         ...      78.3550
  Refrac                                          ...       1.3328
  Rsolv                                           ...       1.3000
  Surface type                                    ... GAUSSIAN VDW
  Epsilon function type                           ...         CPCM
Solvent:                                     ... WATER
SMD-CDS solvent descriptors:
  Soln                                       ...    1.3328
  Soln25                                     ...    1.3323
  Sola                                       ...    0.0000
  Solb                                       ...    0.0000
  Solg                                       ...    0.0000
  Solc                                       ...    0.0000
  Solh                                       ...    0.0000
Radii:
 Radius for C  used is    3.4960 Bohr (=   1.8500 Ang.)
 Radius for N  used is    3.5716 Bohr (=   1.8900 Ang.)
 Radius for O  used is    2.8724 Bohr (=   1.5200 Ang.)
 Radius for F  used is    3.2692 Bohr (=   1.7300 Ang.)
 Radius for H  used is    2.2677 Bohr (=   1.2000 Ang.)
 Radius for S  used is    4.7054 Bohr (=   2.4900 Ang.)
Calculating surface                               ...        done! (  0.0s)
GEPOL surface points                              ...         1155
GEPOL Volume                                      ...    1374.9242
GEPOL Surface-area                                ...     850.8297
Calculating surface distance matrix               ...        done! (  0.0s)
Performing Cholesky decomposition & store         ...        done! (  0.1s)
Overall time for CPCM initialization              ...                 0.1s
--------------
SCF ITERATIONS
--------------
ITER       Energy         Delta-E        Max-DP      RMS-DP      [F,P]     Damp
               ***  Starting incremental Fock matrix formation  ***
  0   -989.8663182399   0.000000000000 0.32271891  0.00311706  0.2373476 0.7000
  1   -990.0285275712  -0.162209331235 0.26929695  0.00249149  0.1165463 0.7000
                               ***Turning on DIIS***
  2   -990.1009715064  -0.072443935229 1.56245267  0.00895656  0.0610295 0.0000
  3   -990.2250526391  -0.124081132682 0.70916341  0.00376038  0.0550011 0.0000
  4   -990.2442044204  -0.019151781329 0.25086373  0.00133534  0.0124775 0.0000
  5   -990.2453829632  -0.001178542834 0.12090171  0.00067952  0.0061507 0.0000
                      *** Initiating the SOSCF procedure ***
                           *** Shutting down DIIS ***
                      *** Re-Reading the Fockian *** 
                      *** Removing any level shift *** 
ITER      Energy       Delta-E        Grad      Rot      Max-DP    RMS-DP
  6   -990.24561634  -0.0002333758  0.001490  0.001490  0.032103  0.000219
               *** Restarting incremental Fock matrix formation ***
  7   -990.24570027  -0.0000839314  0.000974  0.002392  0.017217  0.000203
  8   -990.24573937  -0.0000391024  0.000335  0.002501  0.015029  0.000185
  9   -990.24574532  -0.0000059493  0.000682  0.000715  0.008459  0.000098
 10   -990.24575221  -0.0000068911  0.000113  0.000189  0.002288  0.000027
 11   -990.24575230  -0.0000000858  0.000093  0.000127  0.003766  0.000021
 12   -990.24575266  -0.0000003562  0.000015  0.000039  0.005930  0.000030
 13   -990.24575266  -0.0000000012  0.000006  0.000032  0.006078  0.000041
 14   -990.24575266  -0.0000000014  0.000005  0.000012  0.004514  0.000028
                  ***Gradient check signals convergence***
              ***Rediagonalizing the Fockian in SOSCF/NRSCF***

               *****************************************************
               *                     SUCCESS                       *
               *           SCF CONVERGED AFTER  15 CYCLES          *
               *****************************************************

Old exchange energy                            =    -28.432495586 Eh
New exchange energy                            =    -28.432483423 Eh
Exchange energy change after final integration =      0.000012164 Eh
Total energy after final integration           =   -990.245740501 Eh
Final COS-X integration done in                =     3.530 sec

SMD CDS free energy correction energy :                 5.87294     Kcal/mol
Total Energy after SMD CDS correction =              -990.236381383 Eh

----------------
TOTAL SCF ENERGY
----------------

Total Energy       :         -990.23638138 Eh          -26945.70183 eV

Components:
Nuclear Repulsion  :          688.54396630 Eh           18736.23385 eV
Electronic Energy  :        -1678.78034769 Eh          -45681.93569 eV
One Electron Energy:        -2736.85331025 Eh          -74473.56473 eV
Two Electron Energy:         1058.07296256 Eh           28791.62905 eV
Max COSX asymmetry :            0.00000171 Eh               0.00005 eV
CPCM Dielectric    :           -0.12257995 Eh              -3.33557 eV
SMD CDS (Gcds)     :            0.00935912 Eh               0.25467 eV

Virial components:
Potential Energy   :        -1977.46692044 Eh          -53809.61053 eV
Kinetic Energy     :          987.23053906 Eh           26863.90870 eV
Virial Ratio       :            2.00304472


DFT components:
N(Alpha)           :       48.999956356071 electrons
N(Beta)            :       48.999956356071 electrons
N(Total)           :       97.999912712143 electrons
E(XC)              :      -73.337911612049 Eh       
DFET-embed. en.    :        0.000000000000 Eh       
CPCM Solvation Model Properties:
Surface-charge          :            0.94703372
Charge-correction       :           -0.00563147 Eh              -0.15324 eV
Free-energy (cav+disp)  :            0.00935912 Eh               0.25467 eV

---------------
SCF CONVERGENCE
---------------

  Last Energy change         ...   -6.6979e-09  Tolerance :   1.0000e-08
  Last MAX-Density change    ...    5.3291e-15  Tolerance :   1.0000e-07
  Last RMS-Density change    ...    4.2618e-17  Tolerance :   5.0000e-09
  Last Orbital Gradient      ...    1.9829e-06  Tolerance :   1.0000e-05
  Last Orbital Rotation      ...    1.6998e-06  Tolerance :   1.0000e-05

             **** THE GBW FILE WAS UPDATED (structure_opt.gbw) ****
             **** DENSITY structure_opt.scfp WAS UPDATED ****
             **** ENERGY FILE WAS UPDATED (structure_opt.en.tmp) ****
             **** THE GBW FILE WAS UPDATED (structure_opt.gbw) ****
             **** DENSITY structure_opt.scfp WAS UPDATED ****
----------------
ORBITAL ENERGIES
----------------

  NO   OCC          E(Eh)            E(eV) 
   0   2.0000     -88.720596     -2414.2102 
   1   2.0000     -24.793268      -674.6591 
   2   2.0000     -19.275601      -524.5158 
   3   2.0000     -19.243921      -523.6537 
   4   2.0000     -14.669825      -399.1862 
   5   2.0000     -14.435433      -392.8081 
   6   2.0000     -10.437603      -284.0216 
   7   2.0000     -10.364045      -282.0200 
   8   2.0000     -10.338060      -281.3129 
   9   2.0000     -10.321045      -280.8499 
  10   2.0000     -10.290349      -280.0146 
  11   2.0000     -10.236294      -278.5437 
  12   2.0000      -7.916463      -215.4179 
  13   2.0000      -5.879606      -159.9922 
  14   2.0000      -5.872227      -159.7914 
  15   2.0000      -5.872209      -159.7909 
  16   2.0000      -1.396305       -37.9954 
  17   2.0000      -1.348227       -36.6871 
  18   2.0000      -1.151483       -31.3334 
  19   2.0000      -1.109135       -30.1811 
  20   2.0000      -1.008325       -27.4379 
  21   2.0000      -0.943258       -25.6674 
  22   2.0000      -0.873904       -23.7801 
  23   2.0000      -0.836500       -22.7623 
  24   2.0000      -0.796541       -21.6750 
  25   2.0000      -0.769094       -20.9281 
  26   2.0000      -0.705935       -19.2095 
  27   2.0000      -0.686502       -18.6807 
  28   2.0000      -0.669295       -18.2124 
  29   2.0000      -0.665448       -18.1078 
  30   2.0000      -0.661708       -18.0060 
  31   2.0000      -0.633222       -17.2308 
  32   2.0000      -0.620310       -16.8795 
  33   2.0000      -0.615097       -16.7376 
  34   2.0000      -0.563721       -15.3396 
  35   2.0000      -0.536957       -14.6113 
  36   2.0000      -0.527813       -14.3625 
  37   2.0000      -0.527777       -14.3616 
  38   2.0000      -0.494656       -13.4603 
  39   2.0000      -0.494438       -13.4543 
  40   2.0000      -0.456097       -12.4110 
  41   2.0000      -0.432484       -11.7685 
  42   2.0000      -0.421650       -11.4737 
  43   2.0000      -0.416328       -11.3289 
  44   2.0000      -0.407909       -11.0998 
  45   2.0000      -0.391131       -10.6432 
  46   2.0000      -0.384767       -10.4700 
  47   2.0000      -0.259281        -7.0554 
  48   2.0000      -0.259255        -7.0547 
  49   0.0000      -0.064753        -1.7620 
  50   0.0000       0.022722         0.6183 
  51   0.0000       0.049592         1.3495 
  52   0.0000       0.055454         1.5090 
  53   0.0000       0.063190         1.7195 
  54   0.0000       0.067370         1.8332 
  55   0.0000       0.073414         1.9977 
  56   0.0000       0.088742         2.4148 
  57   0.0000       0.092745         2.5237 
  58   0.0000       0.094183         2.5629 
  59   0.0000       0.099395         2.7047 
  60   0.0000       0.112276         3.0552 
  61   0.0000       0.123729         3.3668 
  62   0.0000       0.127468         3.4686 
  63   0.0000       0.130124         3.5408 
  64   0.0000       0.132918         3.6169 
  65   0.0000       0.142565         3.8794 
  66   0.0000       0.159309         4.3350 
  67   0.0000       0.162234         4.4146 
  68   0.0000       0.164971         4.4891 
  69   0.0000       0.168216         4.5774 
  70   0.0000       0.170227         4.6321 
  71   0.0000       0.174975         4.7613 
  72   0.0000       0.178844         4.8666 
  73   0.0000       0.180981         4.9248 
  74   0.0000       0.188359         5.1255 
  75   0.0000       0.189665         5.1610 
  76   0.0000       0.195080         5.3084 
  77   0.0000       0.196698         5.3524 
  78   0.0000       0.199423         5.4266 
  79   0.0000       0.211958         5.7677 
  80   0.0000       0.217071         5.9068 
  81   0.0000       0.218975         5.9586 
  82   0.0000       0.222341         6.0502 
  83   0.0000       0.227426         6.1886 
  84   0.0000       0.234648         6.3851 
  85   0.0000       0.239944         6.5292 
  86   0.0000       0.248500         6.7620 
  87   0.0000       0.256363         6.9760 
  88   0.0000       0.267561         7.2807 
  89   0.0000       0.270123         7.3504 
  90   0.0000       0.272122         7.4048 
  91   0.0000       0.278403         7.5757 
  92   0.0000       0.279757         7.6126 
  93   0.0000       0.282768         7.6945 
  94   0.0000       0.285747         7.7756 
  95   0.0000       0.296095         8.0572 
  96   0.0000       0.303803         8.2669 
  97   0.0000       0.317074         8.6280 
  98   0.0000       0.319312         8.6889 
  99   0.0000       0.329959         8.9786 
 100   0.0000       0.336110         9.1460 
 101   0.0000       0.340008         9.2521 
 102   0.0000       0.348851         9.4927 
 103   0.0000       0.353734         9.6256 
 104   0.0000       0.360730         9.8160 
 105   0.0000       0.369431        10.0527 
 106   0.0000       0.373383        10.1603 
 107   0.0000       0.379397        10.3239 
 108   0.0000       0.394567        10.7367 
 109   0.0000       0.406223        11.0539 
 110   0.0000       0.409878        11.1533 
 111   0.0000       0.419632        11.4188 
 112   0.0000       0.428051        11.6479 
 113   0.0000       0.435218        11.8429 
 114   0.0000       0.444084        12.0841 
 115   0.0000       0.454861        12.3774 
 116   0.0000       0.464788        12.6475 
 117   0.0000       0.468451        12.7472 
 118   0.0000       0.471945        12.8423 
 119   0.0000       0.485861        13.2209 
 120   0.0000       0.497347        13.5335 
 121   0.0000       0.502906        13.6848 
 122   0.0000       0.521295        14.1852 
 123   0.0000       0.530438        14.4340 
 124   0.0000       0.530694        14.4409 
 125   0.0000       0.552738        15.0408 
 126   0.0000       0.586090        15.9483 
 127   0.0000       0.613424        16.6921 
 128   0.0000       0.618462        16.8292 
 129   0.0000       0.635236        17.2857 
 130   0.0000       0.639730        17.4079 
 131   0.0000       0.645568        17.5668 
 132   0.0000       0.657722        17.8975 
 133   0.0000       0.666441        18.1348 
 134   0.0000       0.674975        18.3670 
 135   0.0000       0.702007        19.1026 
 136   0.0000       0.708444        19.2777 
 137   0.0000       0.725682        19.7468 
 138   0.0000       0.745099        20.2752 
 139   0.0000       0.770503        20.9665 
 140   0.0000       0.771326        20.9888 
 141   0.0000       0.778660        21.1884 
 142   0.0000       0.812649        22.1133 
 143   0.0000       0.831318        22.6213 
 144   0.0000       0.842871        22.9357 
 145   0.0000       0.852792        23.2056 
 146   0.0000       0.858459        23.3599 
 147   0.0000       0.875439        23.8219 
 148   0.0000       0.903689        24.5906 
 149   0.0000       0.918796        25.0017 
 150   0.0000       0.921925        25.0869 
 151   0.0000       0.936726        25.4896 
 152   0.0000       0.955919        26.0119 
 153   0.0000       0.956903        26.0387 
 154   0.0000       0.961745        26.1704 
 155   0.0000       0.977234        26.5919 
 156   0.0000       0.981960        26.7205 
 157   0.0000       0.987541        26.8724 
 158   0.0000       1.003229        27.2992 
 159   0.0000       1.004661        27.3382 
 160   0.0000       1.006378        27.3849 
 161   0.0000       1.036091        28.1935 
 162   0.0000       1.043755        28.4020 
 163   0.0000       1.065096        28.9827 
 164   0.0000       1.074682        29.2436 
 165   0.0000       1.080591        29.4044 
 166   0.0000       1.084162        29.5016 
 167   0.0000       1.140217        31.0269 
 168   0.0000       1.144678        31.1483 
 169   0.0000       1.157509        31.4974 
 170   0.0000       1.173290        31.9268 
 171   0.0000       1.193990        32.4901 
 172   0.0000       1.198855        32.6225 
 173   0.0000       1.213753        33.0279 
 174   0.0000       1.250385        34.0247 
 175   0.0000       1.263382        34.3784 
 176   0.0000       1.277181        34.7539 
 177   0.0000       1.278843        34.7991 
 178   0.0000       1.280287        34.8384 
 179   0.0000       1.294747        35.2319 
 180   0.0000       1.300474        35.3877 
 181   0.0000       1.357971        36.9523 
 182   0.0000       1.396943        38.0127 
 183   0.0000       1.408023        38.3142 
 184   0.0000       1.472050        40.0565 
 185   0.0000       1.524999        41.4973 
 186   0.0000       1.545001        42.0416 
 187   0.0000       1.587903        43.2090 
 188   0.0000       1.589297        43.2470 
 189   0.0000       1.590210        43.2718 
 190   0.0000       1.618498        44.0416 
 191   0.0000       1.633102        44.4390 
 192   0.0000       1.655550        45.0498 
 193   0.0000       1.657219        45.0952 
 194   0.0000       1.694804        46.1180 
 195   0.0000       1.695240        46.1298 
 196   0.0000       1.707595        46.4660 
 197   0.0000       1.716790        46.7162 
 198   0.0000       1.749379        47.6030 
 199   0.0000       1.761413        47.9305 
 200   0.0000       1.787000        48.6267 
 201   0.0000       1.810108        49.2555 
 202   0.0000       1.811469        49.2926 
 203   0.0000       1.816708        49.4351 
 204   0.0000       1.843282        50.1583 
 205   0.0000       1.854100        50.4526 
 206   0.0000       1.869424        50.8696 
 207   0.0000       1.910754        51.9943 
 208   0.0000       1.934707        52.6461 
 209   0.0000       1.947796        53.0022 
 210   0.0000       1.972316        53.6694 
 211   0.0000       1.974949        53.7411 
 212   0.0000       1.991233        54.1842 
 213   0.0000       2.012378        54.7596 
 214   0.0000       2.032337        55.3027 
 215   0.0000       2.046187        55.6796 
 216   0.0000       2.056407        55.9577 
 217   0.0000       2.111271        57.4506 
 218   0.0000       2.141850        58.2827 
 219   0.0000       2.149299        58.4854 
 220   0.0000       2.168943        59.0199 
 221   0.0000       2.174411        59.1687 
 222   0.0000       2.177271        59.2466 
 223   0.0000       2.207287        60.0633 
 224   0.0000       2.293137        62.3994 
 225   0.0000       2.324118        63.2425 
 226   0.0000       2.332380        63.4673 
 227   0.0000       2.332717        63.4765 
 228   0.0000       2.401311        65.3430 
 229   0.0000       2.431004        66.1510 
 230   0.0000       2.497397        67.9576 
 231   0.0000       2.564055        69.7715 
 232   0.0000       2.592669        70.5501 
 233   0.0000       2.597777        70.6891 
 234   0.0000       2.606315        70.9214 
 235   0.0000       2.627768        71.5052 
 236   0.0000       2.661393        72.4202 
 237   0.0000       2.662608        72.4532 
 238   0.0000       2.673039        72.7371 
 239   0.0000       2.673616        72.7528 
 240   0.0000       2.695318        73.3433 
 241   0.0000       2.779904        75.6450 
 242   0.0000       2.785356        75.7934 
 243   0.0000       2.829771        77.0020 
 244   0.0000       2.844373        77.3993 
 245   0.0000       2.860045        77.8258 
 246   0.0000       2.871356        78.1336 
 247   0.0000       2.883548        78.4653 
 248   0.0000       2.899165        78.8903 
 249   0.0000       2.901979        78.9669 
 250   0.0000       2.934238        79.8447 
 251   0.0000       2.937609        79.9364 
 252   0.0000       2.960347        80.5551 
 253   0.0000       2.978153        81.0397 
 254   0.0000       2.987270        81.2878 
 255   0.0000       3.002802        81.7104 
 256   0.0000       3.013331        81.9969 
 257   0.0000       3.098866        84.3244 
 258   0.0000       3.153461        85.8100 
 259   0.0000       3.189190        86.7823 
 260   0.0000       3.269822        88.9764 
 261   0.0000       3.307757        90.0086 
 262   0.0000       3.308373        90.0254 
 263   0.0000       3.344271        91.0022 
 264   0.0000       3.369620        91.6920 
 265   0.0000       3.454893        94.0124 
 266   0.0000       3.498810        95.2075 
 267   0.0000       3.560862        96.8960 
 268   0.0000       3.596376        97.8624 
 269   0.0000       3.680992       100.1649 
 270   0.0000       3.703850       100.7869 
 271   0.0000       3.754722       102.1712 
 272   0.0000       3.853748       104.8658 
 273   0.0000       3.887113       105.7737 
 274   0.0000       3.888694       105.8167 
 275   0.0000       3.890379       105.8626 
 276   0.0000       3.903819       106.2283 
 277   0.0000       3.924988       106.8043 
 278   0.0000       4.013852       109.2225 
 279   0.0000       4.060495       110.4917 
 280   0.0000       4.120297       112.1190 
 281   0.0000       4.144912       112.7888 
 282   0.0000       4.169171       113.4489 
 283   0.0000       4.405910       119.8909 
 284   0.0000       4.481939       121.9597 
 285   0.0000       4.503767       122.5537 
 286   0.0000       4.761183       129.5584 
 287   0.0000       4.943260       134.5129 
 288   0.0000       5.071733       138.0089 
 289   0.0000       5.099839       138.7737 
 290   0.0000       5.190628       141.2442 
 291   0.0000       5.220667       142.0616 
 292   0.0000       5.314822       144.6237 
 293   0.0000       5.698568       155.0659 
 294   0.0000       6.131006       166.8332 
 295   0.0000       6.425527       174.8475 
 296   0.0000       6.540492       177.9758 
 297   0.0000       6.840723       186.1455 
 298   0.0000       7.982297       217.2093 
 299   0.0000      17.548231       477.5116 
 300   0.0000      17.551469       477.5998 
 301   0.0000      17.644848       480.1407 
 302   0.0000      23.652804       643.6255 
 303   0.0000      23.891226       650.1133 
 304   0.0000      23.984317       652.6464 
 305   0.0000      24.030477       653.9025 
 306   0.0000      24.071707       655.0244 
 307   0.0000      24.181995       658.0255 
 308   0.0000      35.375634       962.6199 
 309   0.0000      35.657454       970.2887 
 310   0.0000      49.900568      1357.8635 
 311   0.0000      49.963696      1359.5813 
 312   0.0000      66.793059      1817.5315 
 313   0.0000     188.971951      5142.1882 

--------------------
FRAGMENT INFORMATION
--------------------
Fragment  1:    0   1   2   3   4   5 
Fragment  2:    6   7   8   9  10  11  12 
Fragment  3:   13  14  15  16 
Fragment  4:   17 


                    ********************************
                    * MULLIKEN POPULATION ANALYSIS *
                    ********************************

-------------------------
MULLIKEN FRAGMENT CHARGES
-------------------------
 Fragment   0 :  -0.445758
 Fragment   1 :   0.445335
 Fragment   2 :  -0.033148
 Fragment   3 :  -0.966429
Sum of fragment charges:   -1.0000000

---------------------------------
MULLIKEN FRAGMENT OVERLAP CHARGES
---------------------------------
                  0          1          2          3    
      0      21.313420   0.580063  -0.001350   0.004710
      1       0.580063  34.995883   0.000510   0.001985
      2      -0.001350   0.000510  11.642287  -0.636555
      3       0.004710   0.001985  -0.636555  17.281359

-----------------------
MULLIKEN ATOMIC CHARGES
-----------------------
   0 C :   -0.074241
   1 N :   -0.181692
   2 C :   -0.324365
   3 C :   -0.259094
   4 C :    0.447316
   5 C :   -0.053683
   6 N :   -0.068422
   7 O :   -0.055302
   8 O :   -0.237260
   9 F :   -0.102439
  10 H :    0.297152
  11 H :    0.282499
  12 H :    0.329106
  13 C :   -0.416550
  14 H :    0.127466
  15 H :    0.128694
  16 H :    0.127243
  17 S :   -0.966429
Sum of atomic charges:   -1.0000000

--------------------------------
MULLIKEN REDUCED ORBITAL CHARGES
--------------------------------
  0 C s       :     3.320623  s :     3.320623
      pz      :     0.672948  p :     2.593174
      px      :     0.979607
      py      :     0.940620
      dz2     :     0.052759  d :     0.160444
      dxz     :     0.048836
      dyz     :     0.028427
      dx2y2   :     0.013771
      dxy     :     0.016651
  1 N s       :     3.603730  s :     3.603730
      pz      :     1.142345  p :     3.547439
      px      :     1.239680
      py      :     1.165415
      dz2     :     0.008167  d :     0.030522
      dxz     :     0.007240
      dyz     :     0.004754
      dx2y2   :     0.005503
      dxy     :     0.004858
  2 C s       :     3.402474  s :     3.402474
      pz      :     0.817275  p :     2.837737
      px      :     1.171671
      py      :     0.848791
      dz2     :     0.023591  d :     0.084153
      dxz     :     0.032198
      dyz     :     0.014796
      dx2y2   :     0.007221
      dxy     :     0.006348
  3 C s       :     3.222082  s :     3.222082
      pz      :     1.147682  p :     2.983854
      px      :     0.865875
      py      :     0.970296
      dz2     :     0.015282  d :     0.053158
      dxz     :     0.017418
      dyz     :     0.005093
      dx2y2   :     0.008220
      dxy     :     0.007146
  4 C s       :     2.513093  s :     2.513093
      pz      :     0.891810  p :     2.982494
      px      :     1.240132
      py      :     0.850553
      dz2     :     0.016551  d :     0.057097
      dxz     :     0.015859
      dyz     :     0.010566
      dx2y2   :     0.007218
      dxy     :     0.006904
  5 C s       :     3.304590  s :     3.304590
      pz      :     1.074077  p :     2.675959
      px      :     0.482778
      py      :     1.119104
      dz2     :     0.013625  d :     0.073134
      dxz     :     0.029769
      dyz     :     0.010343
      dx2y2   :     0.011215
      dxy     :     0.008182
  6 N s       :     3.582362  s :     3.582362
      pz      :     1.061139  p :     3.377067
      px      :     1.214266
      py      :     1.101662
      dz2     :     0.027720  d :     0.108993
      dxz     :     0.039355
      dyz     :     0.023078
      dx2y2   :     0.008551
      dxy     :     0.010288
  7 O s       :     3.779665  s :     3.779665
      pz      :     1.027677  p :     4.256942
      px      :     1.828176
      py      :     1.401089
      dz2     :     0.009710  d :     0.018695
      dxz     :     0.003512
      dyz     :     0.005305
      dx2y2   :     0.000102
      dxy     :     0.000067
  8 O s       :     3.823485  s :     3.823485
      pz      :     1.625055  p :     4.401661
      px      :     1.217986
      py      :     1.558620
      dz2     :     0.001059  d :     0.012114
      dxz     :     0.004900
      dyz     :     0.000880
      dx2y2   :     0.003118
      dxy     :     0.002158
  9 F s       :     3.918471  s :     3.918471
      pz      :     1.389212  p :     5.178636
      px      :     1.916015
      py      :     1.873410
      dz2     :     0.003096  d :     0.005331
      dxz     :     0.000997
      dyz     :     0.001201
      dx2y2   :     0.000027
      dxy     :     0.000009
 10 H s       :     0.678937  s :     0.678937
      pz      :     0.005484  p :     0.023911
      px      :     0.014131
      py      :     0.004296
 11 H s       :     0.692527  s :     0.692527
      pz      :     0.016383  p :     0.024974
      px      :     0.003657
      py      :     0.004933
 12 H s       :     0.645369  s :     0.645369
      pz      :     0.007747  p :     0.025525
      px      :     0.013378
      py      :     0.004400
 13 C s       :     3.275587  s :     3.275587
      pz      :     1.028412  p :     3.088322
      px      :     1.054547
      py      :     1.005363
      dz2     :     0.007006  d :     0.052641
      dxz     :     0.013390
      dyz     :     0.012458
      dx2y2   :     0.015163
      dxy     :     0.004625
 14 H s       :     0.849834  s :     0.849834
      pz      :     0.005819  p :     0.022700
      px      :     0.012091
      py      :     0.004790
 15 H s       :     0.848584  s :     0.848584
      pz      :     0.009785  p :     0.022722
      px      :     0.008229
      py      :     0.004708
 16 H s       :     0.850099  s :     0.850099
      pz      :     0.006989  p :     0.022659
      px      :     0.004667
      py      :     0.011003
 17 S s       :     6.012466  s :     6.012466
      pz      :     3.625019  p :    10.922550
      px      :     3.928562
      py      :     3.368969
      dz2     :     0.002940  d :     0.031413
      dxz     :     0.003057
      dyz     :     0.014297
      dx2y2   :     0.006567
      dxy     :     0.004552


                     *******************************
                     * LOEWDIN POPULATION ANALYSIS *
                     *******************************

------------------------
LOEWDIN FRAGMENT CHARGES
------------------------
 Fragment   0 :   0.052815
 Fragment   1 :  -0.058385
 Fragment   2 :  -0.354554
 Fragment   3 :  -0.639876

----------------------------
LOEWDIN FRAGMENT BOND ORDERS
----------------------------
                  0          1          2          3    
      0      56.969408   6.779097   0.001873   0.010052
      1       6.779097  43.787954   0.000253   0.001471
      2       0.001873   0.000253  15.416005   1.744183
      3       0.010052   0.001471   1.744183  16.639876

----------------------
LOEWDIN ATOMIC CHARGES
----------------------
   0 C :    0.110934
   1 N :   -0.111123
   2 C :    0.075500
   3 C :   -0.035750
   4 C :    0.077378
   5 C :   -0.064123
   6 N :    0.241515
   7 O :   -0.154463
   8 O :   -0.338890
   9 F :   -0.078141
  10 H :    0.086905
  11 H :    0.084543
  12 H :    0.100145
  13 C :   -0.358374
  14 H :    0.001115
  15 H :    0.001198
  16 H :    0.001508
  17 S :   -0.639876

-------------------------------
LOEWDIN REDUCED ORBITAL CHARGES
-------------------------------
  0 C s       :     2.743858  s :     2.743858
      pz      :     0.849482  p :     2.816084
      px      :     1.080642
      py      :     0.885960
      dz2     :     0.112526  d :     0.329125
      dxz     :     0.100700
      dyz     :     0.050376
      dx2y2   :     0.033890
      dxy     :     0.031632
  1 N s       :     3.150977  s :     3.150977
      pz      :     1.301252  p :     3.903304
      px      :     1.416697
      py      :     1.185356
      dz2     :     0.017386  d :     0.056842
      dxz     :     0.015723
      dyz     :     0.007785
      dx2y2   :     0.009548
      dxy     :     0.006400
  2 C s       :     2.787059  s :     2.787059
      pz      :     1.033097  p :     2.955602
      px      :     1.096644
      py      :     0.825861
      dz2     :     0.060312  d :     0.181840
      dxz     :     0.069045
      dyz     :     0.027970
      dx2y2   :     0.014016
      dxy     :     0.010497
  3 C s       :     2.781390  s :     2.781390
      pz      :     1.081486  p :     3.129998
      px      :     1.092394
      py      :     0.956117
      dz2     :     0.034112  d :     0.124363
      dxz     :     0.045074
      dyz     :     0.008021
      dx2y2   :     0.022219
      dxy     :     0.014937
  4 C s       :     2.779253  s :     2.779253
      pz      :     1.065792  p :     3.015070
      px      :     1.108692
      py      :     0.840586
      dz2     :     0.040915  d :     0.128299
      dxz     :     0.039158
      dyz     :     0.021250
      dx2y2   :     0.015059
      dxy     :     0.011917
  5 C s       :     2.757921  s :     2.757921
      pz      :     1.088593  p :     3.125871
      px      :     0.957376
      py      :     1.079902
      dz2     :     0.039906  d :     0.180331
      dxz     :     0.071786
      dyz     :     0.019839
      dx2y2   :     0.031422
      dxy     :     0.017379
  6 N s       :     3.052009  s :     3.052009
      pz      :     1.205958  p :     3.500115
      px      :     1.215149
      py      :     1.079007
      dz2     :     0.060436  d :     0.206361
      dxz     :     0.076185
      dyz     :     0.035700
      dx2y2   :     0.017512
      dxy     :     0.016528
  7 O s       :     3.581198  s :     3.581198
      pz      :     1.283775  p :     4.540956
      px      :     1.838857
      py      :     1.418325
      dz2     :     0.020434  d :     0.032308
      dxz     :     0.005156
      dyz     :     0.006528
      dx2y2   :     0.000119
      dxy     :     0.000071
  8 O s       :     3.667365  s :     3.667365
      pz      :     1.709916  p :     4.651043
      px      :     1.369833
      py      :     1.571294
      dz2     :     0.001545  d :     0.020482
      dxz     :     0.009264
      dyz     :     0.001173
      dx2y2   :     0.005711
      dxy     :     0.002789
  9 F s       :     3.714893  s :     3.714893
      pz      :     1.535240  p :     5.355879
      px      :     1.934349
      py      :     1.886290
      dz2     :     0.004765  d :     0.007369
      dxz     :     0.001184
      dyz     :     0.001375
      dx2y2   :     0.000037
      dxy     :     0.000009
 10 H s       :     0.842692  s :     0.842692
      pz      :     0.016683  p :     0.070402
      px      :     0.042318
      py      :     0.011401
 11 H s       :     0.843013  s :     0.843013
      pz      :     0.047856  p :     0.072444
      px      :     0.011204
      py      :     0.013383
 12 H s       :     0.826639  s :     0.826639
      pz      :     0.023103  p :     0.073216
      px      :     0.038704
      py      :     0.011409
 13 C s       :     2.858578  s :     2.858578
      pz      :     1.132049  p :     3.392933
      px      :     1.120366
      py      :     1.140519
      dz2     :     0.013470  d :     0.106863
      dxz     :     0.026523
      dyz     :     0.027034
      dx2y2   :     0.030789
      dxy     :     0.009048
 14 H s       :     0.927115  s :     0.927115
      pz      :     0.018171  p :     0.071770
      px      :     0.038998
      py      :     0.014601
 15 H s       :     0.927014  s :     0.927014
      pz      :     0.031814  p :     0.071788
      px      :     0.025471
      py      :     0.014503
 16 H s       :     0.926796  s :     0.926796
      pz      :     0.021489  p :     0.071696
      px      :     0.013589
      py      :     0.036617
 17 S s       :     5.611624  s :     5.611624
      pz      :     3.654031  p :    10.991055
      px      :     3.885083
      py      :     3.451941
      dz2     :     0.003286  d :     0.037197
      dxz     :     0.003564
      dyz     :     0.017234
      dx2y2   :     0.007800
      dxy     :     0.005314


                      *****************************
                      * MAYER POPULATION ANALYSIS *
                      *****************************

  NA   - Mulliken gross atomic population
  ZA   - Total nuclear charge
  QA   - Mulliken gross atomic charge
  VA   - Mayer's total valence
  BVA  - Mayer's bonded valence
  FA   - Mayer's free valence

  ATOM       NA         ZA         QA         VA         BVA        FA
  0 C      6.0742     6.0000    -0.0742     4.3404     4.3404     0.0000
  1 N      7.1817     7.0000    -0.1817     2.7201     2.7201     0.0000
  2 C      6.3244     6.0000    -0.3244     4.0061     4.0061    -0.0000
  3 C      6.2591     6.0000    -0.2591     4.2966     4.2966    -0.0000
  4 C      5.5527     6.0000     0.4473     4.1066     4.1066     0.0000
  5 C      6.0537     6.0000    -0.0537     3.2896     3.2896    -0.0000
  6 N      7.0684     7.0000    -0.0684     3.9363     3.9363     0.0000
  7 O      8.0553     8.0000    -0.0553     2.2064     2.2064     0.0000
  8 O      8.2373     8.0000    -0.2373     2.0053     2.0053     0.0000
  9 F      9.1024     9.0000    -0.1024     0.9627     0.9627     0.0000
 10 H      0.7028     1.0000     0.2972     0.8714     0.8714     0.0000
 11 H      0.7175     1.0000     0.2825     0.9031     0.9031     0.0000
 12 H      0.6709     1.0000     0.3291     0.8279     0.8279     0.0000
 13 C      6.4165     6.0000    -0.4165     3.5900     3.5900    -0.0000
 14 H      0.8725     1.0000     0.1275     0.9405     0.9405     0.0000
 15 H      0.8713     1.0000     0.1287     0.9379     0.9379    -0.0000
 16 H      0.8728     1.0000     0.1272     0.9435     0.9435    -0.0000
 17 S     16.9664    16.0000    -0.9664     0.6204     0.6204    -0.0000

  Mayer bond orders larger than 0.100000
B(  0-C ,  1-N ) :   1.3210 B(  0-C ,  2-C ) :   0.2075 B(  0-C ,  3-C ) :   0.1124 
B(  0-C ,  4-C ) :   0.2695 B(  0-C ,  5-C ) :   1.2083 B(  0-C ,  6-N ) :  -0.1738 
B(  0-C ,  9-F ) :   1.4213 B(  1-N ,  2-C ) :   1.2177 B(  1-N ,  5-C ) :   0.1473 
B(  2-C ,  3-C ) :   1.5645 B(  2-C , 10-H ) :   0.8857 B(  3-C ,  4-C ) :   1.4959 
B(  3-C ,  8-O ) :   0.1339 B(  3-C , 11-H ) :   0.8491 B(  4-C ,  5-C ) :   1.5642 
B(  4-C ,  6-N ) :  -0.1412 B(  4-C ,  8-O ) :   0.1759 B(  4-C ,  9-F ) :  -0.1194 
B(  4-C , 12-H ) :   0.7597 B(  5-C ,  6-N ) :   0.7447 B(  5-C ,  8-O ) :  -0.1685 
B(  5-C ,  9-F ) :  -0.3744 B(  5-C , 12-H ) :   0.1125 B(  6-N ,  7-O ) :   1.8599 
B(  6-N ,  8-O ) :   1.6641 B(  7-O ,  8-O ) :   0.2611 B( 13-C , 14-H ) :   0.9829 
B( 13-C , 15-H ) :   0.9819 B( 13-C , 16-H ) :   0.9818 B( 13-C , 17-S ) :   0.6454 


-------
TIMINGS
-------

Total SCF time: 0 days 0 hours 0 min 41 sec 

Total time                  ....      41.587 sec
Sum of individual times     ....      40.500 sec  ( 97.4%)

[...]
 290   0.0000       5.203999       141.6080 
 291   0.0000       5.283016       143.7582 
 292   0.0000       5.380024       146.3979 
 293   0.0000       5.848668       159.1503 
 294   0.0000       6.341341       172.5567 
 295   0.0000       6.434290       175.0859 
 296   0.0000       6.551432       178.2735 
 297   0.0000       6.860910       186.6949 
 298   0.0000       7.982445       217.2134 
 299   0.0000      17.548211       477.5111 
 300   0.0000      17.551509       477.6008 
 301   0.0000      17.645067       480.1467 
 302   0.0000      23.698945       644.8811 
 303   0.0000      23.952876       651.7909 
 304   0.0000      24.021716       653.6641 
 305   0.0000      24.030929       653.9148 
 306   0.0000      24.131876       656.6617 
 307   0.0000      24.261519       660.1895 
 308   0.0000      35.451797       964.6924 
 309   0.0000      35.735982       972.4255 
 310   0.0000      49.924271      1358.5085 
 311   0.0000      50.031298      1361.4208 
 312   0.0000      66.806268      1817.8910 
 313   0.0000     188.972113      5142.1926 

--------------------
FRAGMENT INFORMATION
--------------------
Fragment  1:    0   1   2   3   4   5 
Fragment  2:    6   7   8   9  10  11  12 
Fragment  3:   13  14  15  16 
Fragment  4:   17 


                    ********************************
                    * MULLIKEN POPULATION ANALYSIS *
                    ********************************

-------------------------
MULLIKEN FRAGMENT CHARGES
-------------------------
 Fragment   0 :  -0.482398
 Fragment   1 :   0.481869
 Fragment   2 :  -0.033652
 Fragment   3 :  -0.965819
Sum of fragment charges:   -1.0000000

---------------------------------
MULLIKEN FRAGMENT OVERLAP CHARGES
---------------------------------
                  0          1          2          3    
      0      19.060213   0.464399  -0.001353   0.004085
      1       0.464399  35.070711   0.000484   0.002227
      2      -0.001353   0.000484  11.642707  -0.634705
      3       0.004085   0.002227  -0.634705  17.280015

-----------------------
MULLIKEN ATOMIC CHARGES
-----------------------
   0 C :   -0.044869
   1 N :   -0.175470
   2 C :   -0.304011
   3 C :   -0.328325
   4 C :    0.546872
   5 C :   -0.176594
   6 N :   -0.006545
   7 O :   -0.166700
   8 O :   -0.114387
   9 F :   -0.118900
  10 H :    0.286247
  11 H :    0.272624
  12 H :    0.329531
  13 C :   -0.417067
  14 H :    0.127467
  15 H :    0.128609
  16 H :    0.127338
  17 S :   -0.965819
Sum of atomic charges:   -1.0000000

--------------------------------
MULLIKEN REDUCED ORBITAL CHARGES
--------------------------------
  0 C s       :     3.279814  s :     3.279814
      pz      :     0.665734  p :     2.595546
      px      :     0.982305
      py      :     0.947507
      dz2     :     0.056958  d :     0.169509
      dxz     :     0.050386
      dyz     :     0.029327
      dx2y2   :     0.014641
      dxy     :     0.018197
  1 N s       :     3.582292  s :     3.582292
      pz      :     1.153245  p :     3.558930
      px      :     1.251498
      py      :     1.154187
      dz2     :     0.008751  d :     0.034248
      dxz     :     0.008447
      dyz     :     0.005297
      dx2y2   :     0.006003
      dxy     :     0.005750
  2 C s       :     3.349010  s :     3.349010
      pz      :     0.827547  p :     2.865661
      px      :     1.169440
      py      :     0.868674
      dz2     :     0.024830  d :     0.089341
      dxz     :     0.034316
      dyz     :     0.015893
      dx2y2   :     0.007675
      dxy     :     0.006626
  3 C s       :     3.277862  s :     3.277862
      pz      :     1.148964  p :     2.994441
      px      :     0.874044
      py      :     0.971433
      dz2     :     0.016228  d :     0.056022
      dxz     :     0.018177
      dyz     :     0.005454
      dx2y2   :     0.008415
      dxy     :     0.007749
  4 C s       :     2.370982  s :     2.370982
      pz      :     0.928430  p :     3.022465
      px      :     1.238606
      py      :     0.855429
      dz2     :     0.017119  d :     0.059682
      dxz     :     0.016419
      dyz     :     0.011180
      dx2y2   :     0.007666
      dxy     :     0.007298
  5 C s       :     3.373361  s :     3.373361
      pz      :     1.103286  p :     2.729637
      px      :     0.505506
      py      :     1.120845
      dz2     :     0.013158  d :     0.073596
      dxz     :     0.030851
      dyz     :     0.010368
      dx2y2   :     0.011040
      dxy     :     0.008180
  6 N s       :     3.481259  s :     3.481259
      pz      :     1.042718  p :     3.386420
      px      :     1.235191
      py      :     1.108511
      dz2     :     0.038145  d :     0.138867
      dxz     :     0.045062
      dyz     :     0.029069
      dx2y2   :     0.011917
      dxy     :     0.014674
  7 O s       :     3.805789  s :     3.805789
      pz      :     1.024739  p :     4.342748
      px      :     1.839815
      py      :     1.478195
      dz2     :     0.009749  d :     0.018163
      dxz     :     0.003258
      dyz     :     0.004997
      dx2y2   :     0.000096
      dxy     :     0.000062
  8 O s       :     3.781437  s :     3.781437
      pz      :     1.550013  p :     4.312811
      px      :     1.330558
      py      :     1.432240
      dz2     :     0.002427  d :     0.020138
      dxz     :     0.007420
      dyz     :     0.002083
      dx2y2   :     0.004202
      dxy     :     0.004006
  9 F s       :     3.917724  s :     3.917724
      pz      :     1.398931  p :     5.195945
      px      :     1.918439
      py      :     1.878574
      dz2     :     0.003047  d :     0.005232
      dxz     :     0.000972
      dyz     :     0.001172
      dx2y2   :     0.000030
      dxy     :     0.000010
 10 H s       :     0.690470  s :     0.690470
      pz      :     0.004820  p :     0.023283
      px      :     0.014201
      py      :     0.004262
 11 H s       :     0.701681  s :     0.701681
      pz      :     0.016443  p :     0.025695
      px      :     0.004029
      py      :     0.005224
 12 H s       :     0.645143  s :     0.645143
      pz      :     0.007538  p :     0.025326
      px      :     0.013520
      py      :     0.004267
 13 C s       :     3.276170  s :     3.276170
      pz      :     1.028101  p :     3.088256
      px      :     1.054077
      py      :     1.006078
      dz2     :     0.007282  d :     0.052641
      dxz     :     0.013168
      dyz     :     0.012328
      dx2y2   :     0.015237
      dxy     :     0.004625
 14 H s       :     0.849831  s :     0.849831
      pz      :     0.005744  p :     0.022701
      px      :     0.012158
      py      :     0.004799
 15 H s       :     0.848668  s :     0.848668
      pz      :     0.009896  p :     0.022723
      px      :     0.008124
      py      :     0.004703
 16 H s       :     0.849987  s :     0.849987
      pz      :     0.006943  p :     0.022675
      px      :     0.004676
      py      :     0.011055
 17 S s       :     6.011962  s :     6.011962
      pz      :     3.622688  p :    10.922446
      px      :     3.924198
      py      :     3.375559
      dz2     :     0.002961  d :     0.031411
      dxz     :     0.003153
      dyz     :     0.014226
      dx2y2   :     0.006428
      dxy     :     0.004643


                     *******************************
                     * LOEWDIN POPULATION ANALYSIS *
                     *******************************

------------------------
LOEWDIN FRAGMENT CHARGES
------------------------
 Fragment   0 :   0.024345
 Fragment   1 :  -0.029989
 Fragment   2 :  -0.354573
 Fragment   3 :  -0.639784

----------------------------
LOEWDIN FRAGMENT BOND ORDERS
----------------------------
                  0          1          2          3    
      0      57.216007   6.723949   0.001893   0.010136
      1       6.723949  44.206019   0.000253   0.001468
      2       0.001893   0.000253  15.416162   1.744167
      3       0.010136   0.001468   1.744167  16.639784

----------------------
LOEWDIN ATOMIC CHARGES
----------------------
   0 C :    0.082100
   1 N :   -0.081861
   2 C :    0.054129
   3 C :   -0.037001
   4 C :    0.071280
   5 C :   -0.064303
   6 N :    0.202346
   7 O :   -0.220416
   8 O :   -0.194143
   9 F :   -0.088821
  10 H :    0.086891
  11 H :    0.079481
  12 H :    0.104673
  13 C :   -0.358313
  14 H :    0.001120
  15 H :    0.001206
  16 H :    0.001414
  17 S :   -0.639784

-------------------------------
LOEWDIN REDUCED ORBITAL CHARGES
-------------------------------
  0 C s       :     2.731276  s :     2.731276
      pz      :     0.851781  p :     2.836958
      px      :     1.094238
      py      :     0.890940
      dz2     :     0.121371  d :     0.349665
      dxz     :     0.103926
      dyz     :     0.052023
      dx2y2   :     0.037095
      dxy     :     0.035251
  1 N s       :     3.107245  s :     3.107245
      pz      :     1.304502  p :     3.910095
      px      :     1.432117
      py      :     1.173476
      dz2     :     0.018966  d :     0.064520
      dxz     :     0.018085
      dyz     :     0.009154
      dx2y2   :     0.010560
      dxy     :     0.007756
  2 C s       :     2.774712  s :     2.774712
      pz      :     1.042477  p :     2.976989
      px      :     1.092296
      py      :     0.842216
      dz2     :     0.063764  d :     0.194170
      dxz     :     0.074030
      dyz     :     0.030589
      dx2y2   :     0.014897
      dxy     :     0.010890
  3 C s       :     2.767593  s :     2.767593
      pz      :     1.081695  p :     3.137877
      px      :     1.100207
      py      :     0.955975
      dz2     :     0.036357  d :     0.131531
      dxz     :     0.047067
      dyz     :     0.008632
      dx2y2   :     0.023068
      dxy     :     0.016408
  4 C s       :     2.771182  s :     2.771182
      pz      :     1.072243  p :     3.022875
      px      :     1.105889
      py      :     0.844744
      dz2     :     0.042431  d :     0.134663
      dxz     :     0.040834
      dyz     :     0.022601
      dx2y2   :     0.016076
      dxy     :     0.012721
  5 C s       :     2.753908  s :     2.753908
      pz      :     1.090192  p :     3.128507
      px      :     0.959296
      py      :     1.079020
      dz2     :     0.039603  d :     0.181887
      dxz     :     0.073842
      dyz     :     0.020129
      dx2y2   :     0.030859
      dxy     :     0.017454
  6 N s       :     2.998005  s :     2.998005
      pz      :     1.219918  p :     3.530961
      px      :     1.230582
      py      :     1.080462
      dz2     :     0.080761  d :     0.268688
      dxz     :     0.092470
      dyz     :     0.045951
      dx2y2   :     0.025577
      dxy     :     0.023929
  7 O s       :     3.574482  s :     3.574482
      pz      :     1.275555  p :     4.614311
      px      :     1.847590
      py      :     1.491166
      dz2     :     0.020459  d :     0.031623
      dxz     :     0.004821
      dyz     :     0.006161
      dx2y2   :     0.000117
      dxy     :     0.000066
  8 O s       :     3.548773  s :     3.548773
      pz      :     1.673697  p :     4.610101
      px      :     1.486651
      py      :     1.449752
      dz2     :     0.003686  d :     0.035269
      dxz     :     0.015302
      dyz     :     0.002832
      dx2y2   :     0.008197
      dxy     :     0.005252
  9 F s       :     3.713793  s :     3.713793
      pz      :     1.539639  p :     5.367771
      px      :     1.937090
      py      :     1.891041
      dz2     :     0.004690  d :     0.007258
      dxz     :     0.001170
      dyz     :     0.001349
      dx2y2   :     0.000040
      dxy     :     0.000010
 10 H s       :     0.845410  s :     0.845410
      pz      :     0.014709  p :     0.067699
      px      :     0.041633
      py      :     0.011356
 11 H s       :     0.846277  s :     0.846277
      pz      :     0.047826  p :     0.074242
      px      :     0.012195
      py      :     0.014220
 12 H s       :     0.823883  s :     0.823883
      pz      :     0.022089  p :     0.071444
      px      :     0.038448
      py      :     0.010907
 13 C s       :     2.858450  s :     2.858450
      pz      :     1.132137  p :     3.392989
      px      :     1.120505
      py      :     1.140348
      dz2     :     0.014034  d :     0.106873
      dxz     :     0.026097
      dyz     :     0.026758
      dx2y2   :     0.030912
      dxy     :     0.009072
 14 H s       :     0.927107  s :     0.927107
      pz      :     0.017912  p :     0.071773
      px      :     0.039241
      py      :     0.014621
 15 H s       :     0.927016  s :     0.927016
      pz      :     0.032191  p :     0.071778
      px      :     0.025114
      py      :     0.014474
 16 H s       :     0.926812  s :     0.926812
      pz      :     0.021348  p :     0.071774
      px      :     0.013626
      py      :     0.036801
 17 S s       :     5.611581  s :     5.611581
      pz      :     3.652388  p :    10.991007
      px      :     3.881709
      py      :     3.456910
      dz2     :     0.003310  d :     0.037196
      dxz     :     0.003680
      dyz     :     0.017150
      dx2y2   :     0.007629
      dxy     :     0.005428


                      *****************************
                      * MAYER POPULATION ANALYSIS *
                      *****************************

  NA   - Mulliken gross atomic population
  ZA   - Total nuclear charge
  QA   - Mulliken gross atomic charge
  VA   - Mayer's total valence
  BVA  - Mayer's bonded valence
  FA   - Mayer's free valence

  ATOM       NA         ZA         QA         VA         BVA        FA
  0 C      6.0449     6.0000    -0.0449     4.2617     4.2617    -0.0000
  1 N      7.1755     7.0000    -0.1755     2.7395     2.7395    -0.0000
  2 C      6.3040     6.0000    -0.3040     4.0139     4.0139    -0.0000
  3 C      6.3283     6.0000    -0.3283     4.4332     4.4332    -0.0000
  4 C      5.4531     6.0000     0.5469     3.9646     3.9646    -0.0000
  5 C      6.1766     6.0000    -0.1766     3.3149     3.3149     0.0000
  6 N      7.0065     7.0000    -0.0065     4.0307     4.0307     0.0000
  7 O      8.1667     8.0000    -0.1667     2.1177     2.1177     0.0000
  8 O      8.1144     8.0000    -0.1144     2.2089     2.2089     0.0000
  9 F      9.1189     9.0000    -0.1189     0.9247     0.9247    -0.0000
 10 H      0.7138     1.0000     0.2862     0.8744     0.8744    -0.0000
 11 H      0.7274     1.0000     0.2726     0.9114     0.9114    -0.0000
 12 H      0.6705     1.0000     0.3295     0.8275     0.8275    -0.0000
 13 C      6.4171     6.0000    -0.4171     3.5905     3.5905     0.0000
 14 H      0.8725     1.0000     0.1275     0.9405     0.9405     0.0000
 15 H      0.8714     1.0000     0.1286     0.9379     0.9379    -0.0000
 16 H      0.8727     1.0000     0.1273     0.9435     0.9435     0.0000
 17 S     16.9658    16.0000    -0.9658     0.6199     0.6199     0.0000

  Mayer bond orders larger than 0.100000
B(  0-C ,  1-N ) :   1.3229 B(  0-C ,  2-C ) :   0.1953 B(  0-C ,  3-C ) :   0.1317 
B(  0-C ,  4-C ) :   0.2194 B(  0-C ,  5-C ) :   1.2474 B(  0-C ,  6-N ) :  -0.1771 
B(  0-C ,  7-O ) :   0.1015 B(  0-C ,  8-O ) :  -0.1189 B(  0-C ,  9-F ) :   1.3688 
B(  1-N ,  2-C ) :   1.1934 B(  1-N ,  5-C ) :   0.1705 B(  2-C ,  3-C ) :   1.6230 
B(  2-C ,  5-C ) :   0.1032 B(  2-C , 10-H ) :   0.8920 B(  3-C ,  4-C ) :   1.4175 
B(  3-C ,  5-C ) :   0.1541 B(  3-C ,  8-O ) :   0.1634 B(  3-C , 11-H ) :   0.8537 
B(  4-C ,  5-C ) :   1.5018 B(  4-C ,  8-O ) :   0.2597 B(  4-C ,  9-F ) :  -0.1246 
B(  4-C , 12-H ) :   0.7188 B(  5-C ,  6-N ) :   0.6491 B(  5-C ,  7-O ) :  -0.1113 
B(  5-C ,  8-O ) :  -0.2168 B(  5-C ,  9-F ) :  -0.3483 B(  5-C , 12-H ) :   0.1426 
B(  6-N ,  7-O ) :   1.8302 B(  6-N ,  8-O ) :   1.8628 B(  7-O ,  8-O ) :   0.2467 
B( 13-C , 14-H ) :   0.9830 B( 13-C , 15-H ) :   0.9821 B( 13-C , 16-H ) :   0.9819 
B( 13-C , 17-S ) :   0.6456 

-------
TIMINGS
-------

Total SCF time: 0 days 0 hours 0 min 18 sec 

Total time                  ....      18.804 sec
Sum of individual times     ....      17.793 sec  ( 94.6%)

Fock matrix formation       ....      15.823 sec  ( 84.1%)
  Split-RI-J                ....       0.959 sec  (  6.1% of F)
  Chain of spheres X        ....      11.218 sec  ( 70.9% of F)
  XC integration            ....       1.591 sec  ( 10.1% of F)
    Basis function eval.    ....       0.139 sec  (  8.7% of XC)
    Density eval.           ....       0.508 sec  ( 31.9% of XC)
    XC-Functional eval.     ....       0.107 sec  (  6.7% of XC)
    XC-Potential eval.      ....       0.102 sec  (  6.4% of XC)
Diagonalization             ....       0.027 sec  (  0.1%)
Density matrix formation    ....       0.013 sec  (  0.1%)
Population analysis         ....       0.089 sec  (  0.5%)
Initial guess               ....       0.039 sec  (  0.2%)
Orbital Transformation      ....       0.000 sec  (  0.0%)
Orbital Orthonormalization  ....       0.021 sec  (  0.1%)
DIIS solution               ....       0.011 sec  (  0.1%)
SOSCF solution              ....       0.131 sec  (  0.7%)
Grid generation             ....       1.661 sec  (  8.8%)

Maximum memory used throughout the entire SCF-calculation: 68.8 MB

-------------------------   --------------------
FINAL SINGLE POINT ENERGY      -990.265013911497
-------------------------   --------------------

                                *** OPTIMIZATION RUN DONE ***

                            ***************************************
                            *     ORCA property calculations      *
                            ***************************************

                                    ---------------------
                                    Active property flags
                                    ---------------------
   (+) Dipole Moment


------------------------------------------------------------------------------
                       ORCA ELECTRIC PROPERTIES CALCULATION
------------------------------------------------------------------------------

Dipole Moment Calculation                       ... on
Quadrupole Moment Calculation                   ... off
Polarizability Calculation                      ... off
GBWName                                         ... structure_opt.gbw
Electron density                                ... structure_opt.scfp
The origin for moment calculation is the CENTER OF MASS  = (-0.367232,  2.967610  5.492417)

-------------
DIPOLE MOMENT
-------------
                                X             Y             Z
Electronic contribution:     -9.72702     -19.21771     -13.54550
Nuclear contribution   :      7.50920      12.23277      14.53051
                        -----------------------------------------
Total Dipole Moment    :     -2.21782      -6.98494       0.98501
                        -----------------------------------------
Magnitude (a.u.)       :      7.39448
Magnitude (Debye)      :     18.79528



--------------------
Rotational spectrum 
--------------------
 
Rotational constants in cm-1:     0.031571     0.008933     0.008426 
Rotational constants in MHz :   946.480875   267.809503   252.604837 

 Dipole components along the rotational axes: 
x,y,z [a.u.] :     6.254124     2.536473     3.021686 
x,y,z [Debye]:    15.896720     6.447201     7.680515 

 

Timings for individual modules:

Sum of individual times         ...      890.513 sec (=  14.842 min)
GTO integral calculation        ...       46.939 sec (=   0.782 min)   5.3 %
SCF iterations                  ...      696.805 sec (=  11.613 min)  78.2 %
SCF Gradient evaluation         ...      145.493 sec (=   2.425 min)  16.3 %
Geometry relaxation             ...        1.276 sec (=   0.021 min)   0.1 %
                             ****ORCA TERMINATED NORMALLY****
TOTAL RUN TIME: 0 days 0 hours 15 minutes 41 seconds 950 msec
