
                                 *****************
                                 * O   R   C   A *
                                 *****************

                                            #,                                       
                                            ###                                      
                                            ####                                     
                                            #####                                    
                                            ######                                   
                                           ########,                                 
                                     ,,################,,,,,                         
                               ,,#################################,,                 
                          ,,##########################################,,             
                       ,#########################################, ''#####,          
                    ,#############################################,,   '####,        
                  ,##################################################,,,,####,       
                ,###########''''           ''''###############################       
              ,#####''   ,,,,##########,,,,          '''####'''          '####       
            ,##' ,,,,###########################,,,                        '##       
           ' ,,###''''                  '''############,,,                           
         ,,##''                                '''############,,,,        ,,,,,,###''
      ,#''                                            '''#######################'''  
     '                                                          ''''####''''         
             ,#######,   #######,   ,#######,      ##                                
            ,#'     '#,  ##    ##  ,#'     '#,    #''#        ######   ,####,        
            ##       ##  ##   ,#'  ##            #'  '#       #        #'  '#        
            ##       ##  #######   ##           ,######,      #####,   #    #        
            '#,     ,#'  ##    ##  '#,     ,#' ,#      #,         ##   #,  ,#        
             '#######'   ##     ##  '#######'  #'      '#     #####' # '####'        



                  #######################################################
                  #                        -***-                        #
                  #          Department of theory and spectroscopy      #
                  #    Directorship and core code : Frank Neese         #
                  #        Max Planck Institute fuer Kohlenforschung    #
                  #                Kaiser Wilhelm Platz 1               #
                  #                 D-45470 Muelheim/Ruhr               #
                  #                      Germany                        #
                  #                                                     #
                  #                  All rights reserved                #
                  #                        -***-                        #
                  #######################################################


                         Program Version 5.0.4 -  RELEASE  -


 With contributions from (in alphabetic order):
   Daniel Aravena         : Magnetic Suceptibility
   Michael Atanasov       : Ab Initio Ligand Field Theory (pilot matlab implementation)
   Alexander A. Auer      : GIAO ZORA, VPT2 properties, NMR spectrum
   Ute Becker             : Parallelization
   Giovanni Bistoni       : ED, misc. LED, open-shell LED, HFLD
   Martin Brehm           : Molecular dynamics
   Dmytro Bykov           : SCF Hessian
   Vijay G. Chilkuri      : MRCI spin determinant printing, contributions to CSF-ICE
   Dipayan Datta          : RHF DLPNO-CCSD density
   Achintya Kumar Dutta   : EOM-CC, STEOM-CC
   Dmitry Ganyushin       : Spin-Orbit,Spin-Spin,Magnetic field MRCI
   Miquel Garcia          : C-PCM and meta-GGA Hessian, CC/C-PCM, Gaussian charge scheme
   Yang Guo               : DLPNO-NEVPT2, F12-NEVPT2, CIM, IAO-localization
   Andreas Hansen         : Spin unrestricted coupled pair/coupled cluster methods
   Benjamin Helmich-Paris : MC-RPA, TRAH-SCF, COSX integrals
   Lee Huntington         : MR-EOM, pCC
   Robert Izsak           : Overlap fitted RIJCOSX, COSX-SCS-MP3, EOM
   Marcus Kettner         : VPT2
   Christian Kollmar      : KDIIS, OOCD, Brueckner-CCSD(T), CCSD density, CASPT2, CASPT2-K
   Simone Kossmann        : Meta GGA functionals, TD-DFT gradient, OOMP2, MP2 Hessian
   Martin Krupicka        : Initial AUTO-CI
   Lucas Lang             : DCDCAS
   Marvin Lechner         : AUTO-CI (C++ implementation), FIC-MRCC
   Dagmar Lenk            : GEPOL surface, SMD
   Dimitrios Liakos       : Extrapolation schemes; Compound Job, initial MDCI parallelization
   Dimitrios Manganas     : Further ROCIS development; embedding schemes
   Dimitrios Pantazis     : SARC Basis sets
   Anastasios Papadopoulos: AUTO-CI, single reference methods and gradients
   Taras Petrenko         : DFT Hessian,TD-DFT gradient, ASA, ECA, R-Raman, ABS, FL, XAS/XES, NRVS
   Peter Pinski           : DLPNO-MP2, DLPNO-MP2 Gradient
   Christoph Reimann      : Effective Core Potentials
   Marius Retegan         : Local ZFS, SOC
   Christoph Riplinger    : Optimizer, TS searches, QM/MM, DLPNO-CCSD(T), (RO)-DLPNO pert. Triples
   Tobias Risthaus        : Range-separated hybrids, TD-DFT gradient, RPA, STAB
   Michael Roemelt        : Original ROCIS implementation
   Masaaki Saitow         : Open-shell DLPNO-CCSD energy and density
   Barbara Sandhoefer     : DKH picture change effects
   Avijit Sen             : IP-ROCIS
   Kantharuban Sivalingam : CASSCF convergence, NEVPT2, FIC-MRCI
   Bernardo de Souza      : ESD, SOC TD-DFT
   Georgi Stoychev        : AutoAux, RI-MP2 NMR, DLPNO-MP2 response
   Willem Van den Heuvel  : Paramagnetic NMR
   Boris Wezisla          : Elementary symmetry handling
   Frank Wennmohs         : Technical directorship


 We gratefully acknowledge several colleagues who have allowed us to
 interface, adapt or use parts of their codes:
   Stefan Grimme, W. Hujo, H. Kruse, P. Pracht,  : VdW corrections, initial TS optimization,
                  C. Bannwarth, S. Ehlert          DFT functionals, gCP, sTDA/sTD-DF
   Ed Valeev, F. Pavosevic, A. Kumar             : LibInt (2-el integral package), F12 methods
   Garnet Chan, S. Sharma, J. Yang, R. Olivares  : DMRG
   Ulf Ekstrom                                   : XCFun DFT Library
   Mihaly Kallay                                 : mrcc  (arbitrary order and MRCC methods)
   Jiri Pittner, Ondrej Demel                    : Mk-CCSD
   Frank Weinhold                                : gennbo (NPA and NBO analysis)
   Christopher J. Cramer and Donald G. Truhlar   : smd solvation model
   Lars Goerigk                                  : TD-DFT with DH, B97 family of functionals
   V. Asgeirsson, H. Jonsson                     : NEB implementation
   FAccTs GmbH                                   : IRC, NEB, NEB-TS, DLPNO-Multilevel, CI-OPT
                                                   MM, QMMM, 2- and 3-layer-ONIOM, Crystal-QMMM,
                                                   LR-CPCM, SF, NACMEs, symmetry and pop. for TD-DFT,
                                                   nearIR, NL-DFT gradient (VV10), updates on ESD,
                                                   ML-optimized integration grids
   S Lehtola, MJT Oliveira, MAL Marques          : LibXC Library
   Liviu Ungur et al                             : ANISO software


 Your calculation uses the libint2 library for the computation of 2-el integrals
 For citations please refer to: http://libint.valeyev.net

 Your ORCA version has been built with support for libXC version: 5.1.0
 For citations please refer to: https://tddft.org/programs/libxc/

 This ORCA versions uses:
   CBLAS   interface :  Fast vector & matrix operations
   LAPACKE interface :  Fast linear algebra routines
   SCALAPACK package :  Parallel linear algebra routines
   Shared memory     :  Shared parallel matrices
   BLAS/LAPACK       :  OpenBLAS 0.3.15  USE64BITINT DYNAMIC_ARCH NO_AFFINITY SkylakeX SINGLE_THREADED
        Core in use  :  SkylakeX
   Copyright (c) 2011-2014, The OpenBLAS Project




***************************************
The coordinates will be read from file: reactants.xyz
***************************************


Your calculation utilizes the SMD solvation module
Please cite in your paper:
A.V. Marenich, C.J. Cramer, D.G. Truhlar J. Phys. Chem. B, 113, (2009), 6378 

XCFun DFT library Copyright 2009-2010 Ulf Ekstrom and contributors.
See http://admol.org/xcfun for more information.
This is free software; see the source code for copying conditions.
There is ABSOLUTELY NO WARRANTY; not even for MERCHANTABILITY or FITNESS FOR A PARTICULAR PURPOSE.
For details see the documentation.
Scientific users of this library should cite U. Ekstrom, L. Visscher, R. Bast, A. J. Thorvaldsen and K. Ruud;
J.Chem.Theor.Comp. 2010, DOI: 10.1021/ct100117s
XCFun Version 0.99 

================================================================================

----- Orbital basis set information -----
Your calculation utilizes the basis: 6-311++G**
   H, Li - Ne  : R. Krishnan, J. S. Binkley, R. Seeger and J. A. Pople, J. Chem. Phys. 72, 650 (1980).
   Na - Ar     : A. D. McLean and G. S. Chandler J. Chem. Phys. 72, 5639, (1980).
   K  - Ca     : J.-P. Blaudeau, M. P. McGrath, L. A. Curtiss and L. Radom, J. Chem. Phys. 107, 5016 (1997).
   Ga - Kr     : L. A. Curtiss, M. P. McGrath, J.-P. Blandeau, N. E. Davis, R. C. Binning and L. Radom, J. Chem. Phys. 103, 6104 (1995).
   Pol./Diff.
   H, Li - Cl  : T. Clark, J. Chandrasekhar and P. v. R. Schleyer, J. Comp. Chem. 4, 294 (1983).
   H - Ne      : M. J. Frisch, J. A. Pople and J. S. Binkley, J. Chem. Phys. 80, 3265 (1984).

----- AuxJ basis set information -----
Your calculation utilizes the auxiliary basis: def2/J
   F. Weigend, Phys. Chem. Chem. Phys. 8, 1057 (2006).

================================================================================
                                        WARNINGS
                       Please study these warnings very carefully!
================================================================================


WARNING: Geometry Optimization
  ===> : Switching off AutoStart
         For restart on a previous wavefunction, please use MOREAD

INFO   : the flag for use of the SHARK integral package has been found!

================================================================================
                                       INPUT FILE
================================================================================
NAME = structure_opt.inp
|  1> !wb97x 6-311++G** OPT CPCM(WATER)
|  2> %maxcore  3500
|  3> %pal
|  4> nprocs 24
|  5> end
|  6> %cpcm
|  7> smd true
|  8> SMDsolvent "water"
|  9> end
| 10> %geom
| 11> ConstrainFragments {1} end
| 12> ConstrainFragments {4} end
| 13> ConnectFragments
| 14> { 1 2 C 5 7 }
| 15> { 1 2 C 0 9 }
| 16> { 2 3 C 13 5 }
| 17> { 3 4 C 13 17 }
| 18> end
| 19> end
| 20> * XYZfile -1 1 reactants.xyz
| 21> %geom
| 22> Fragments
| 23> 1 {0:5} end
| 24> 2 {6:12} end
| 25> 3 {13:16} end
| 26> 4 {17} end
| 27> end
| 28> end
| 29> 
| 30>                          ****END OF INPUT****
================================================================================

                       *****************************
                       * Geometry Optimization Run *
                       *****************************

Geometry optimization settings:
Update method            Update   .... BFGS
Choice of coordinates    CoordSys .... Z-matrix Internals
Initial Hessian          InHess   .... Almoef's Model

Convergence Tolerances:
Energy Change            TolE     ....  5.0000e-06 Eh
Max. Gradient            TolMAXG  ....  3.0000e-04 Eh/bohr
RMS Gradient             TolRMSG  ....  1.0000e-04 Eh/bohr
Max. Displacement        TolMAXD  ....  4.0000e-03 bohr
RMS Displacement         TolRMSD  ....  2.0000e-03 bohr
Strict Convergence                ....  False
------------------------------------------------------------------------------
                        ORCA OPTIMIZATION COORDINATE SETUP
------------------------------------------------------------------------------

The optimization will be done in new redundant internal coordinates
Making redundant internal coordinates   ...  (new redundants) done
Evaluating the initial hessian          ...  (Almloef) done
Evaluating the coordinates              ...  done
Calculating the B-matrix                .... done
Calculating the G-matrix                .... done
Diagonalizing the G-matrix              .... done
Imposing constraints:
 Iter   0:  RMS(Cart)=    0.0000000000 RMS(Int)=    0.0000000000
CONVERGED
Small eigenvalue found = 8.819e-03
The first mode is                       ....   68
The number of degrees of freedom        ....   48
Storing new coordinates                 .... done

    -----------------------------------------------------------------
                    Redundant Internal Coordinates


    -----------------------------------------------------------------
         Definition                    Initial Value    Approx d2E/dq
    -----------------------------------------------------------------
      1. B(N   1,C   0)                  1.3611         0.622347   
      2. B(C   2,N   1)                  1.3582         0.628875   
      3. B(C   3,C   2)                  1.3949         0.613658   
      4. B(C   4,C   3)                  1.3934         0.616971   
      5. B(C   5,C   0)                  1.4122         0.575774   
      6. B(C   5,C   4)                  1.4061         0.588917   
      7. B(O   7,C   5)                  2.3435         0.016853 C 
      8. B(O   7,N   6)                  1.2480         0.844503   
      9. B(O   8,N   6)                  1.3769         0.525866   
     10. B(F   9,C   0)                  1.3500         0.602260 C 
     11. B(F   9,N   6)                  2.8678         0.002044   
     12. B(F   9,O   7)                  2.5821         0.005837   
     13. B(H  11,H  10)                  2.4818         0.000415   
     14. B(H  12,O   8)                  2.5152         0.001717   
     15. B(H  12,H  11)                  2.4663         0.000439   
     16. B(H  12,N   6)                  2.7029         0.000861   
     17. B(C  13,F   9)                  9.1876         0.000000 C 
     18. B(H  14,C  13)                  1.0934         0.355679   
     19. B(H  15,C  13)                  1.0931         0.355995   
     20. B(H  16,C  13)                  1.0937         0.355269   
     21. B(S  17,C  13)                  1.8034         0.368909 C 
     22. A(N   1,C   0,F   9)          118.6704         0.424592 C 
     23. A(C   5,C   0,F   9)          121.1725         0.421471 C 
     24. A(N   1,C   0,C   5)          120.1571         0.425830   
     25. A(C   0,N   1,C   2)          121.9524         0.429796   
     26. A(N   1,C   2,C   3)          120.0262         0.431531   
     27. A(C   2,C   3,C   4)          119.3498         0.432882   
     28. A(C   3,C   4,C   5)          120.4718         0.429694   
     29. A(C   0,C   5,C   4)          118.0425         0.424407   
     30. A(C   0,C   5,O   7)           94.5313         0.237820 C 
     31. A(C   4,C   5,O   7)          147.4261         0.238582 C 
     32. A(F   9,N   6,H  12)          110.0144         0.106848   
     33. A(O   7,N   6,F   9)           64.2090         0.186619   
     34. A(O   7,N   6,H  12)          174.2234         0.159181   
     35. A(O   8,N   6,H  12)           67.2752         0.152046   
     36. A(O   7,N   6,O   8)          118.5014         0.433822   
     37. A(N   6,O   7,F   9)           89.9947         0.212791   
     38. A(C   5,O   7,N   6)           31.7456         0.248611 C 
     39. A(C   5,O   7,F   9)           58.2491         0.140475 C 
     40. A(N   6,O   8,H  12)           82.3972         0.162696   
     41. A(C   0,F   9,C  13)          145.7239         0.089490   
     42. A(N   6,F   9,O   7)           25.7962         0.120482   
     43. A(O   7,F   9,C  13)          108.4198         0.089170 C 
     44. A(C   0,F   9,O   7)           86.0471         0.203997 C 
     45. A(C   0,F   9,N   6)           60.2509         0.179684 C 
     46. A(N   6,F   9,C  13)          129.4547         0.089134 C 
     47. A(H  10,H  11,H  12)          119.7063         0.095112   
     48. A(N   6,H  12,O   8)           30.3275         0.103999   
     49. A(N   6,H  12,H  11)          126.7169         0.097913   
     50. A(O   8,H  12,H  11)          157.0445         0.099419   
     51. A(H  14,C  13,H  16)          108.9709         0.289661   
     52. A(H  15,C  13,H  16)          109.0639         0.289702   
     53. A(F   9,C  13,H  14)          111.6452         0.089381 C 
     54. A(H  16,C  13,S  17)          109.8717         0.339357 C 
     55. A(F   9,C  13,H  15)          109.3112         0.089381 C 
     56. A(F   9,C  13,H  16)          108.7814         0.089381 C 
     57. A(H  14,C  13,S  17)          109.9431         0.339422 C 
     58. A(H  15,C  13,S  17)          109.9361         0.339473 C 
     59. A(H  14,C  13,H  15)          109.0305         0.289754   
     60. D(C   2,N   1,C   0,C   5)     -0.1041         0.028432   
     61. D(C   2,N   1,C   0,F   9)    179.9112         0.028432 C 
     62. D(C   3,C   2,N   1,C   0)      0.1066         0.025783   
     63. D(C   4,C   3,C   2,N   1)     -0.0956         0.020965   
     64. D(C   5,C   4,C   3,C   2)      0.0854         0.021202   
     65. D(C   4,C   5,C   0,N   1)      0.0896         0.022761   
     66. D(C   4,C   5,C   0,F   9)   -179.9260         0.022761 C 
     67. D(O   7,C   5,C   0,N   1)    179.9933         0.022761 C 
     68. D(O   7,C   5,C   0,F   9)     -0.0223         0.022761 C 
     69. D(C   0,C   5,C   4,C   3)     -0.0818         0.021656   
     70. D(O   7,C   5,C   4,C   3)   -179.9036         0.021656 C 
     71. D(N   6,O   7,C   5,C   0)   -179.9521         0.001517 C 
     72. D(N   6,O   7,C   5,C   4)     -0.1099         0.001517 C 
     73. D(F   9,O   7,C   5,C   0)      0.0117         0.001517 C 
     74. D(F   9,O   7,N   6,O   8)    179.9932         0.079747   
     75. D(C   5,O   7,N   6,F   9)      0.0308         0.079747 C 
     76. D(F   9,O   7,N   6,H  12)      0.1568         0.079747   
     77. D(C   5,O   7,N   6,O   8)   -179.9761         0.079747 C 
     78. D(C   5,O   7,N   6,H  12)      0.1876         0.079747 C 
     79. D(F   9,O   7,C   5,C   4)    179.8539         0.001517 C 
     80. D(H  12,O   8,N   6,O   7)   -179.9821         0.025649   
     81. D(C  13,F   9,N   6,O   7)    -40.3258         0.001500 C 
     82. D(N   6,F   9,C   0,C   5)      0.0236         0.035386 C 
     83. D(O   7,F   9,C   0,N   1)   -179.9952         0.035386 C 
     84. D(O   7,F   9,C   0,C   5)      0.0202         0.035386 C 
     85. D(C  13,F   9,C   0,N   1)     62.5527         0.035386   
     86. D(C  13,F   9,C   0,C   5)   -117.4319         0.035386   
     87. D(O   7,F   9,N   6,H  12)   -179.9832         0.001500   
     88. D(C   0,F   9,N   6,O   7)   -179.9922         0.001500 C 
     89. D(N   6,F   9,C   0,N   1)   -179.9918         0.035386 C 
     90. D(C   0,F   9,N   6,H  12)      0.0246         0.001500 C 
     91. D(C  13,F   9,N   6,H  12)    139.6910         0.001500 C 
     92. D(C   0,F   9,O   8,H  12)      0.0232         0.001500 C 
     93. D(C   0,F   9,O   7,N   6)      0.0068         0.001503 C 
     94. D(C   0,F   9,O   7,C   5)     -0.0123         0.001503 C 
     95. D(C  13,F   9,O   7,N   6)    148.2205         0.001503 C 
     96. D(C  13,F   9,O   7,C   5)    148.2015         0.001503   
     97. D(N   6,F   9,O   7,C   5)     -0.0190         0.001503 C 
     98. D(O   7,F   9,O   8,H  12)   -179.9897         0.001500   
     99. D(C  13,F   9,O   8,H  12)    139.2135         0.001500 C 
    100. D(O   8,H  12,N   6,O   7)    179.8441         0.001501   
    101. D(N   6,H  12,H  11,H  10)      0.0466         0.001502   
    102. D(H  11,H  12,N   6,O   7)     -0.1748         0.001501   
    103. D(H  11,H  12,N   6,O   8)    179.9811         0.001501   
    104. D(H  11,H  12,N   6,F   9)     -0.0245         0.001501   
    105. D(O   8,H  12,N   6,F   9)    179.9943         0.001501   
    106. D(H  11,H  12,O   8,N   6)     -0.0388         0.001502   
    107. D(O   8,H  12,H  11,H  10)      0.0710         0.001502   
    108. D(H  14,C  13,F   9,N   6)     94.8968         0.001500 C 
    109. D(H  14,C  13,F   9,O   7)     77.6300         0.001500 C 
    110. D(H  14,C  13,F   9,C   0)   -171.2918         0.001500   
    111. D(H  15,C  13,F   9,N   6)    -25.8191         0.001500 C 
    112. D(H  15,C  13,F   9,O   7)    -43.0859         0.001500 C 
    113. D(H  15,C  13,F   9,C   0)     67.9923         0.001500   
    114. D(H  16,C  13,F   9,N   6)   -144.8135         0.001500 C 
    115. D(H  16,C  13,F   9,O   7)   -162.0802         0.001500 C 
    116. D(H  16,C  13,F   9,C   0)    -51.0021         0.001500   
    -----------------------------------------------------------------

Number of atoms                         .... 18
Number of degrees of freedom            .... 116

         *************************************************************
         *                GEOMETRY OPTIMIZATION CYCLE   1            *
         *************************************************************
---------------------------------
CARTESIAN COORDINATES (ANGSTROEM)
---------------------------------
  C      0.000000    0.000000    1.820000
  N      1.178000   -0.196000    2.473000
  C      1.255000   -0.207000    3.829000
  C      0.105000   -0.016000    4.595000
  C     -1.116000    0.187000    3.955000
  C     -1.192000    0.198000    2.551000
  N     -2.456000    0.409000    1.893000
  O     -2.541000    0.423000    0.648000
  O     -3.602000    0.600000    2.632000
  F      0.000000    0.000000    0.470000
  H      2.209000   -0.366000    4.313000
  H      0.163000   -0.026000    5.676000
  H     -2.005000    0.335000    4.557000
  C      1.599000   -4.921000   -7.122000
  H      1.559000   -4.300000   -8.021000
  H      0.851000   -5.714000   -7.203000
  H      2.592000   -5.373000   -7.046000
  S      1.271000   -3.913000   -5.663000

----------------------------
CARTESIAN COORDINATES (A.U.)
----------------------------
  NO LB      ZA    FRAG     MASS         X           Y           Z
   0 C     6.0000    1    12.011    0.000000    0.000000    3.439302
   1 N     7.0000    1    14.007    2.226097   -0.370386    4.673293
   2 C     6.0000    1    12.011    2.371606   -0.391173    7.235761
   3 C     6.0000    1    12.011    0.198421   -0.030236    8.683292
   4 C     6.0000    1    12.011   -2.108934    0.353379    7.473867
   5 C     6.0000    1    12.011   -2.252554    0.374166    4.820691
   6 N     7.0000    2    14.007   -4.641167    0.772898    3.577252
   7 O     8.0000    2    15.999   -4.801794    0.799354    1.224543
   8 O     8.0000    2    15.999   -6.806794    1.133836    4.973759
   9 F     9.0000    2    18.998    0.000000    0.000000    0.888171
  10 H     1.0000    2     1.008    4.174405   -0.691640    8.150389
  11 H     1.0000    2     1.008    0.308025   -0.049133   10.726086
  12 H     1.0000    2     1.008   -3.788901    0.633058    8.611482
  13 C     6.0000    3    12.011    3.021672   -9.299342  -13.458630
  14 H     1.0000    3     1.008    2.946083   -8.125822  -15.157493
  15 H     1.0000    3     1.008    1.608157  -10.797895  -13.611697
  16 H     1.0000    3     1.008    4.898170  -10.153499  -13.315010
  17 S    16.0000    4    32.060    2.401842   -7.394498  -10.701519

----------------------------------------------
CARTESIAN COORDINATES OF FRAGMENTS (ANGSTROEM)
----------------------------------------------

 FRAGMENT 1 
  C     0.000000    0.000000    1.820000
  N     1.178000   -0.196000    2.473000
  C     1.255000   -0.207000    3.829000
  C     0.105000   -0.016000    4.595000
  C    -1.116000    0.187000    3.955000
  C    -1.192000    0.198000    2.551000

 FRAGMENT 2 
  N    -2.456000    0.409000    1.893000
  O    -2.541000    0.423000    0.648000
  O    -3.602000    0.600000    2.632000
  F     0.000000    0.000000    0.470000
  H     2.209000   -0.366000    4.313000
  H     0.163000   -0.026000    5.676000
  H    -2.005000    0.335000    4.557000

 FRAGMENT 3 
  C     1.599000   -4.921000   -7.122000
  H     1.559000   -4.300000   -8.021000
  H     0.851000   -5.714000   -7.203000
  H     2.592000   -5.373000   -7.046000

 FRAGMENT 4 
  S     1.271000   -3.913000   -5.663000

--------------------------------
INTERNAL COORDINATES (ANGSTROEM)
--------------------------------
 C      0   0   0     0.000000000000     0.00000000     0.00000000
 N      1   0   0     1.361069065110     0.00000000     0.00000000
 C      2   1   0     1.358228993948   121.95243626     0.00000000
 C      3   2   1     1.394896770374   120.02620694     0.10655554
 C      4   3   2     1.393431017309   119.34983770   359.90435571
 C      5   4   3     1.406098502951   120.47178172     0.08537773
 N      6   5   4     1.440548853736   120.30882193   180.03842131
 O      7   6   5     1.247976762604   121.13704526   179.93147861
 O      7   6   5     1.376923382037   120.36156660   359.90709941
 F      1   2   3     1.350000000000   118.67037638   179.91115691
 H      3   2   1     1.081504969938   119.86701156   179.98746005
 H      4   3   2     1.082601034546   120.19197482   179.89186186
 H      5   4   3     1.083803026384   118.91636700   180.02085854
 C     10   1   2     9.187573455489   145.72392453    62.55271403
 H     14  10   1     1.093362702858   111.64519973   188.70821190
 H     14  10   1     1.093121219262   109.31120414    67.99225901
 H     14  10   1     1.093676826124   108.78135962   308.99792361
 S     14  10   1     1.803421470428     1.72390504   179.53137216

---------------------------
INTERNAL COORDINATES (A.U.)
---------------------------
 C      0   0   0     0.000000000000     0.00000000     0.00000000
 N      1   0   0     2.572047782411     0.00000000     0.00000000
 C      2   1   0     2.566680825712   121.95243626     0.00000000
 C      3   2   1     2.635972881098   120.02620694     0.10655554
 C      4   3   2     2.633203009226   119.34983770   359.90435571
 C      5   4   3     2.657141087893   120.47178172     0.08537773
 N      6   5   4     2.722242816095   120.30882193   180.03842131
 O      7   6   5     2.358334302820   121.13704526   179.93147861
 O      7   6   5     2.602008099442   120.36156660   359.90709941
 F      1   2   3     2.551130280794   118.67037638   179.91115691
 H      3   2   1     2.043748205657   119.86701156   179.98746005
 H      4   3   2     2.045819467592   120.19197482   179.89186186
 H      5   4   3     2.048090902982   118.91636700   180.02085854
 C     10   1   2    17.361997666158   145.72392453    62.55271403
 H     14  10   1     2.066156073445   111.64519973   188.70821190
 H     14  10   1     2.065699735583   109.31120414    67.99225901
 H     14  10   1     2.066749680390   108.78135962   308.99792361
 S     14  10   1     3.407972683142     1.72390504   179.53137216

---------------------
BASIS SET INFORMATION
---------------------
There are 6 groups of distinct atoms

 Group   1 Type C   : 12s6p1d contracted to 5s4p1d pattern {63111/3111/1}
 Group   2 Type N   : 12s6p1d contracted to 5s4p1d pattern {63111/3111/1}
 Group   3 Type O   : 12s6p1d contracted to 5s4p1d pattern {63111/3111/1}
 Group   4 Type F   : 12s6p1d contracted to 5s4p1d pattern {63111/3111/1}
 Group   5 Type H   : 6s1p contracted to 4s1p pattern {3111/1}
 Group   6 Type S   : 14s10p1d contracted to 7s6p1d pattern {6311111/421111/1}

Atom   0C    basis set group =>   1
Atom   1N    basis set group =>   2
Atom   2C    basis set group =>   1
Atom   3C    basis set group =>   1
Atom   4C    basis set group =>   1
Atom   5C    basis set group =>   1
Atom   6N    basis set group =>   2
Atom   7O    basis set group =>   3
Atom   8O    basis set group =>   3
Atom   9F    basis set group =>   4
Atom  10H    basis set group =>   5
Atom  11H    basis set group =>   5
Atom  12H    basis set group =>   5
Atom  13C    basis set group =>   1
Atom  14H    basis set group =>   5
Atom  15H    basis set group =>   5
Atom  16H    basis set group =>   5
Atom  17S    basis set group =>   6
---------------------------------
AUXILIARY/J BASIS SET INFORMATION
---------------------------------
There are 6 groups of distinct atoms

 Group   1 Type C   : 12s5p4d2f1g contracted to 6s4p3d1f1g pattern {711111/2111/211/2/1}
 Group   2 Type N   : 12s5p4d2f1g contracted to 6s4p3d1f1g pattern {711111/2111/211/2/1}
 Group   3 Type O   : 12s5p4d2f1g contracted to 6s4p3d1f1g pattern {711111/2111/211/2/1}
 Group   4 Type F   : 12s5p4d2f1g contracted to 6s4p3d1f1g pattern {711111/2111/211/2/1}
 Group   5 Type H   : 5s2p1d contracted to 3s1p1d pattern {311/2/1}
 Group   6 Type S   : 14s5p5d2f1g contracted to 8s4p3d1f1g pattern {71111111/2111/311/2/1}

Atom   0C    basis set group =>   1
Atom   1N    basis set group =>   2
Atom   2C    basis set group =>   1
Atom   3C    basis set group =>   1
Atom   4C    basis set group =>   1
Atom   5C    basis set group =>   1
Atom   6N    basis set group =>   2
Atom   7O    basis set group =>   3
Atom   8O    basis set group =>   3
Atom   9F    basis set group =>   4
Atom  10H    basis set group =>   5
Atom  11H    basis set group =>   5
Atom  12H    basis set group =>   5
Atom  13C    basis set group =>   1
Atom  14H    basis set group =>   5
Atom  15H    basis set group =>   5
Atom  16H    basis set group =>   5
Atom  17S    basis set group =>   6


           ************************************************************
           *        Program running with 24 parallel MPI-processes    *
           *              working on a common directory               *
           ************************************************************
------------------------------------------------------------------------------
                           ORCA GTO INTEGRAL CALCULATION
                           -- RI-GTO INTEGRALS CHOSEN --
------------------------------------------------------------------------------
------------------------------------------------------------------------------
                   ___                                                        
                  /   \      - P O W E R E D   B Y -                         
                 /     \                                                     
                 |  |  |   _    _      __       _____    __    __             
                 |  |  |  | |  | |    /  \     |  _  \  |  |  /  |          
                  \  \/   | |  | |   /    \    | | | |  |  | /  /          
                 / \  \   | |__| |  /  /\  \   | |_| |  |  |/  /          
                |  |  |   |  __  | /  /__\  \  |    /   |      \           
                |  |  |   | |  | | |   __   |  |    \   |  |\   \          
                \     /   | |  | | |  |  |  |  | |\  \  |  | \   \       
                 \___/    |_|  |_| |__|  |__|  |_| \__\ |__|  \__/        
                                                                              
                      - O R C A' S   B I G   F R I E N D -                    
                                      &                                       
                       - I N T E G R A L  F E E D E R -                       
                                                                              
 v1 FN, 2020, v2 2021                                                         
------------------------------------------------------------------------------


Reading SHARK input file structure_opt.SHARKINP.tmp ... ok
----------------------
SHARK INTEGRAL PACKAGE
----------------------

Number of atoms                             ...     18
Number of basis functions                   ...    314
Number of shells                            ...    154
Maximum angular momentum                    ...      2
Integral batch strategy                     ... SHARK/LIBINT Hybrid
RI-J (if used) integral strategy            ... SPLIT-RIJ (Revised 2003 algorithm where possible)
Printlevel                                  ...      1
Contraction scheme used                     ... SEGMENTED contraction
Coulomb Range Separation                    ... NOT USED
Exchange Range Separation                   ... Long Range
   Mu parameter                             ...  0.300000
   Scaling (regular/separated)              ...  0.157706  0.842294
Finite Nucleus Model                        ... NOT USED
Auxiliary Coulomb fitting basis             ... AVAILABLE
   # of basis functions in Aux-J            ...    656
   # of shells in Aux-J                     ...    212
   Maximum angular momentum in Aux-J        ...      4
Auxiliary J/K fitting basis                 ... NOT available
Auxiliary Correlation fitting basis         ... NOT available
Auxiliary 'external' fitting basis          ... NOT available
Integral threshold                          ...     2.500000e-11
Primitive cut-off                           ...     2.500000e-12
Primitive pair pre-selection threshold      ...     2.500000e-12

Calculating pre-screening integrals         ... done (  0.0 sec) Dimension = 154
Organizing shell pair data                  ... done (  0.1 sec)
Shell pair information
Total number of shell pairs                 ...     11935
Shell pairs after pre-screening             ...      8331
Total number of primitive shell pairs       ...     38500
Primitive shell pairs kept                  ...     19292
          la=0 lb=0:   2524 shell pairs
          la=1 lb=0:   3425 shell pairs
          la=1 lb=1:   1194 shell pairs
          la=2 lb=0:    668 shell pairs
          la=2 lb=1:    468 shell pairs
          la=2 lb=2:     52 shell pairs

Calculating one electron integrals          ... done (  0.0 sec)
Calculating RI/J V-Matrix + Cholesky decomp.... done (  0.1 sec)
Calculating Nuclear repulsion               ... done (  0.0 sec) ENN=    646.375014518709 Eh

SHARK setup successfully completed in   2.7 seconds

Maximum memory used throughout the entire GTOINT-calculation: 17.1 MB


           ************************************************************
           *        Program running with 24 parallel MPI-processes    *
           *              working on a common directory               *
           ************************************************************
-------------------------------------------------------------------------------
                                 ORCA SCF
-------------------------------------------------------------------------------

------------
SCF SETTINGS
------------
Hamiltonian:
 Density Functional     Method          .... DFT(GTOs)
 Exchange Functional    Exchange        .... WB97X
 Correlation Functional Correlation     .... WB97X
 Gradients option       PostSCFGGA      .... off
 Hybrid DFT is turned on
   Fraction HF Exchange ScalHFX         ....  0.157706
   Scaling of DF-GGA-X  ScalDFX         ....  0.000000
   Scaling of DF-GGA-C  ScalDFC         ....  1.000000
   Scaling of DF-LDA-C  ScalLDAC        ....  1.000000
   Perturbative correction              ....  0.000000
   Density functional embedding theory  .... OFF
 Long-range corrected/Screened/Range-Separated Hybrid DFT is turned on
   Amount of maximum screened exact exchange              ....  0.842294
   Range separation parameter mu (erf(mu*r12)/r12)        ....  0.300000
 RI-approximation to the Coulomb term is turned on
   Number of AuxJ basis functions       .... 656
   RIJ-COSX (HFX calculated with COS-X)).... on


General Settings:
 Integral files         IntName         .... structure_opt
 Hartree-Fock type      HFTyp           .... RHF
 Total Charge           Charge          ....   -1
 Multiplicity           Mult            ....    1
 Number of Electrons    NEL             ....   98
 Basis Dimension        Dim             ....  314
 Nuclear Repulsion      ENuc            ....    646.3750145187 Eh

Convergence Acceleration:
 DIIS                   CNVDIIS         .... on
   Start iteration      DIISMaxIt       ....    12
   Startup error        DIISStart       ....  0.200000
   # of expansion vecs  DIISMaxEq       ....     5
   Bias factor          DIISBfac        ....   1.050
   Max. coefficient     DIISMaxC        ....  10.000
 Trust-Rad. Augm. Hess. CNVTRAH         .... auto
   Auto Start mean grad. ratio tolernc. ....  1.125000
   Auto Start start iteration           ....    20
   Auto Start num. interpolation iter.  ....    10
   Max. Number of Micro iterations      ....    16
   Max. Number of Macro iterations      .... Maxiter - #DIIS iter
   Number of Davidson start vectors     ....     2
   Converg. threshold I  (grad. norm)   ....   1.000e-05
   Converg. threshold II (energy diff.) ....   1.000e-08
   Grad. Scal. Fac. for Micro threshold ....   0.100
   Minimum threshold for Micro iter.    ....   0.010
   NR start threshold (gradient norm)   ....   0.001
   Initial trust radius                 ....   0.400
   Minimum AH scaling param. (alpha)    ....   1.000
   Maximum AH scaling param. (alpha)    .... 1000.000
   Orbital update algorithm             .... Taylor
   White noise on init. David. guess    .... on
   Maximum white noise                  ....   0.010
   Quad. conv. algorithm                .... NR
 SOSCF                  CNVSOSCF        .... on
   Start iteration      SOSCFMaxIt      ....   150
   Startup grad/error   SOSCFStart      ....  0.003300
 Level Shifting         CNVShift        .... on
   Level shift para.    LevelShift      ....    0.2500
   Turn off err/grad.   ShiftErr        ....    0.0010
 Zerner damping         CNVZerner       .... off
 Static damping         CNVDamp         .... on
   Fraction old density DampFac         ....    0.7000
   Max. Damping (<1)    DampMax         ....    0.9800
   Min. Damping (>=0)   DampMin         ....    0.0000
   Turn off err/grad.   DampErr         ....    0.1000
 Fernandez-Rico         CNVRico         .... off

SCF Procedure:
 Maximum # iterations   MaxIter         ....   125
 SCF integral mode      SCFMode         .... Direct
   Integral package                     .... SHARK and LIBINT hybrid scheme
 Reset frequency        DirectResetFreq ....    20
 Integral Threshold     Thresh          ....  2.500e-11 Eh
 Primitive CutOff       TCut            ....  2.500e-12 Eh

Convergence Tolerance:
 Convergence Check Mode ConvCheckMode   .... Total+1el-Energy
 Convergence forced     ConvForced      .... 0
 Energy Change          TolE            ....  1.000e-08 Eh
 1-El. energy change                    ....  1.000e-05 Eh
 Orbital Gradient       TolG            ....  1.000e-05
 Orbital Rotation angle TolX            ....  1.000e-05
 DIIS Error             TolErr          ....  5.000e-07


Diagonalization of the overlap matrix:
Smallest eigenvalue                        ... 4.524e-06
Time for diagonalization                   ...    0.046 sec
Threshold for overlap eigenvalues          ... 1.000e-08
Number of eigenvalues below threshold      ... 0
Time for construction of square roots      ...    0.030 sec
Total time needed                          ...    0.077 sec

Time for model grid setup =    0.285 sec

------------------------------
INITIAL GUESS: MODEL POTENTIAL
------------------------------
Loading Hartree-Fock densities                     ... done
Calculating cut-offs                               ... done
Initializing the effective Hamiltonian             ... done
Setting up the integral package (SHARK)            ... done
Starting the Coulomb interaction                   ... done (   0.1 sec)
Reading the grid                                   ... done
Mapping shells                                     ... done
Starting the XC term evaluation                    ... done (   0.0 sec)
  promolecular density results
     # of electrons  =     96.995799236
     EX              =    -96.552343355
     EC              =     -3.327207141
     EX+EC           =    -99.879550496
Transforming the Hamiltonian                       ... done (   0.0 sec)
Diagonalizing the Hamiltonian                      ... done (   0.0 sec)
Back transforming the eigenvectors                 ... done (   0.0 sec)
Now organizing SCF variables                       ... done
                      ------------------
                      INITIAL GUESS DONE (   0.5 sec)
                      ------------------
-------------------
DFT GRID GENERATION
-------------------

General Integration Accuracy     IntAcc      ... 4.388
Radial Grid Type                 RadialGrid  ... OptM3 with GC (2021)
Angular Grid (max. ang.)         AngularGrid ... 4 (Lebedev-302)
Angular grid pruning method      GridPruning ... 4 (adaptive)
Weight generation scheme         WeightScheme... Becke
Basis function cutoff            BFCut       ... 1.0000e-11
Integration weight cutoff        WCut        ... 1.0000e-14
Angular grids for H and He will be reduced by one unit
Partially contracted basis set               ... off
Rotationally invariant grid construction     ... off

Total number of grid points                  ...    98160
Total number of batches                      ...     1543
Average number of points per batch           ...       63
Average number of grid points per atom       ...     5453
Time for grid setup =    0.776 sec

--------------------
COSX GRID GENERATION
--------------------

GRIDX 1
-------
General Integration Accuracy     IntAcc      ... 3.816
Radial Grid Type                 RadialGrid  ... OptM3 with GC (2021)
Angular Grid (max. ang.)         AngularGrid ... 1 (Lebedev-50)
Angular grid pruning method      GridPruning ... 4 (adaptive)
Weight generation scheme         WeightScheme... Becke
Basis function cutoff            BFCut       ... 1.0000e-11
Integration weight cutoff        WCut        ... 1.0000e-14
Angular grids for H and He will be reduced by one unit
Partially contracted basis set               ... on
Rotationally invariant grid construction     ... off

Total number of grid points                  ...    12256
Total number of batches                      ...      203
Average number of points per batch           ...       60
Average number of grid points per atom       ...      681
UseSFitting                                  ... on

GRIDX 2
-------
General Integration Accuracy     IntAcc      ... 4.020
Radial Grid Type                 RadialGrid  ... OptM3 with GC (2021)
Angular Grid (max. ang.)         AngularGrid ... 2 (Lebedev-110)
Angular grid pruning method      GridPruning ... 4 (adaptive)
Weight generation scheme         WeightScheme... Becke
Basis function cutoff            BFCut       ... 1.0000e-11
Integration weight cutoff        WCut        ... 1.0000e-14
Angular grids for H and He will be reduced by one unit
Partially contracted basis set               ... on
Rotationally invariant grid construction     ... off

Total number of grid points                  ...    31199
Total number of batches                      ...      494
Average number of points per batch           ...       63
Average number of grid points per atom       ...     1733
UseSFitting                                  ... on

GRIDX 3
-------
General Integration Accuracy     IntAcc      ... 4.338
Radial Grid Type                 RadialGrid  ... OptM3 with GC (2021)
Angular Grid (max. ang.)         AngularGrid ... 3 (Lebedev-194)
Angular grid pruning method      GridPruning ... 4 (adaptive)
Weight generation scheme         WeightScheme... Becke
Basis function cutoff            BFCut       ... 1.0000e-11
Integration weight cutoff        WCut        ... 1.0000e-14
Angular grids for H and He will be reduced by one unit
Partially contracted basis set               ... on
Rotationally invariant grid construction     ... off

Total number of grid points                  ...    69475
Total number of batches                      ...     1094
Average number of points per batch           ...       63
Average number of grid points per atom       ...     3860
UseSFitting                                  ... on

Time for X-Grid setup             =    1.132 sec


--------------------
CPCM SOLVATION MODEL
--------------------
CPCM parameters:
  Epsilon                                         ...      78.3550
  Refrac                                          ...       1.3328
  Rsolv                                           ...       1.3000
  Surface type                                    ... GAUSSIAN VDW
  Epsilon function type                           ...         CPCM
Solvent:                                     ... WATER
SMD-CDS solvent descriptors:
  Soln                                       ...    1.3328
  Soln25                                     ...    1.3323
  Sola                                       ...    0.0000
  Solb                                       ...    0.0000
  Solg                                       ...    0.0000
  Solc                                       ...    0.0000
  Solh                                       ...    0.0000
Radii:
 Radius for C  used is    3.4960 Bohr (=   1.8500 Ang.)
 Radius for N  used is    3.5716 Bohr (=   1.8900 Ang.)
 Radius for O  used is    2.8724 Bohr (=   1.5200 Ang.)
 Radius for F  used is    3.2692 Bohr (=   1.7300 Ang.)
 Radius for H  used is    2.2677 Bohr (=   1.2000 Ang.)
 Radius for S  used is    4.7054 Bohr (=   2.4900 Ang.)
Calculating surface                               ...        done! (  0.0s)
GEPOL surface points                              ...         1155
GEPOL Volume                                      ...    1369.4615
GEPOL Surface-area                                ...     849.2100
Calculating surface distance matrix               ...        done! (  0.0s)
Performing Cholesky decomposition & store         ...        done! (  0.1s)
Overall time for CPCM initialization              ...                 0.1s
--------------
SCF ITERATIONS
--------------
ITER       Energy         Delta-E        Max-DP      RMS-DP      [F,P]     Damp
               ***  Starting incremental Fock matrix formation  ***
  0   -989.8659283900   0.000000000000 0.32888576  0.00312522  0.2373477 0.7000
  1   -990.0281444695  -0.162216079575 0.22811786  0.00242697  0.1178497 0.7000
                               ***Turning on DIIS***
  2   -990.1005868604  -0.072442390813 1.44083618  0.00862044  0.0624660 0.0000
  3   -990.2246477034  -0.124060843060 0.70307443  0.00371960  0.0550197 0.0000
  4   -990.2437900532  -0.019142349813 0.26125685  0.00138785  0.0124258 0.0000
  5   -990.2449653796  -0.001175326354 0.12635066  0.00069569  0.0061344 0.0000
                      *** Initiating the SOSCF procedure ***
                           *** Shutting down DIIS ***
                      *** Re-Reading the Fockian *** 
                      *** Removing any level shift *** 
ITER      Energy       Delta-E        Grad      Rot      Max-DP    RMS-DP
  6   -990.24519675  -0.0002313749  0.001495  0.001495  0.035090  0.000221
               *** Restarting incremental Fock matrix formation ***
  7   -990.24528758  -0.0000908228  0.000980  0.002404  0.031567  0.000299
  8   -990.24532898  -0.0000414043  0.000386  0.002857  0.020468  0.000215
  9   -990.24533506  -0.0000060825  0.000706  0.000749  0.016784  0.000157
 10   -990.24534233  -0.0000072610  0.000116  0.000215  0.002855  0.000030
 11   -990.24534240  -0.0000000737  0.000093  0.000126  0.003870  0.000025
 12   -990.24534277  -0.0000003677  0.000015  0.000040  0.006442  0.000034
 13   -990.24534277  -0.0000000015  0.000007  0.000031  0.003845  0.000030
 14   -990.24534277  -0.0000000058  0.000005  0.000013  0.003911  0.000025
                  ***Gradient check signals convergence***
              ***Rediagonalizing the Fockian in SOSCF/NRSCF***

               *****************************************************
               *                     SUCCESS                       *
               *           SCF CONVERGED AFTER  15 CYCLES          *
               *****************************************************

Old exchange energy                            =    -28.432725032 Eh
New exchange energy                            =    -28.432718968 Eh
Exchange energy change after final integration =      0.000006065 Eh
Total energy after final integration           =   -990.245336713 Eh
Final COS-X integration done in                =     3.150 sec

SMD CDS free energy correction energy :                 5.87397     Kcal/mol
Total Energy after SMD CDS correction =              -990.235975944 Eh

----------------
TOTAL SCF ENERGY
----------------

Total Energy       :         -990.23597594 Eh          -26945.69080 eV

Components:
Nuclear Repulsion  :          646.37501452 Eh           17588.75834 eV
Electronic Energy  :        -1636.61099046 Eh          -44534.44914 eV
One Electron Energy:        -2650.82538021 Eh          -72132.62575 eV
Two Electron Energy:         1014.21438975 Eh           27598.17661 eV
Max COSX asymmetry :            0.00000211 Eh               0.00006 eV
CPCM Dielectric    :           -0.13591909 Eh              -3.69855 eV
SMD CDS (Gcds)     :            0.00936077 Eh               0.25472 eV

Virial components:
Potential Energy   :        -1977.46935643 Eh          -53809.67682 eV
Kinetic Energy     :          987.23338049 Eh           26863.98602 eV
Virial Ratio       :            2.00304142


DFT components:
N(Alpha)           :       48.999867308844 electrons
N(Beta)            :       48.999867308844 electrons
N(Total)           :       97.999734617687 electrons
E(XC)              :      -73.338212795691 Eh       
DFET-embed. en.    :        0.000000000000 Eh       
CPCM Solvation Model Properties:
Surface-charge          :            0.94211957
Charge-correction       :           -0.00522741 Eh              -0.14225 eV
Free-energy (cav+disp)  :            0.00936077 Eh               0.25472 eV

---------------
SCF CONVERGENCE
---------------

  Last Energy change         ...   -3.6773e-09  Tolerance :   1.0000e-08
  Last MAX-Density change    ...    2.6645e-15  Tolerance :   1.0000e-07
  Last RMS-Density change    ...    3.6593e-17  Tolerance :   5.0000e-09
  Last Orbital Gradient      ...    1.9430e-06  Tolerance :   1.0000e-05
  Last Orbital Rotation      ...    1.8357e-06  Tolerance :   1.0000e-05

             **** THE GBW FILE WAS UPDATED (structure_opt.gbw) ****
             **** DENSITY structure_opt.scfp WAS UPDATED ****
             **** ENERGY FILE WAS UPDATED (structure_opt.en.tmp) ****
             **** THE GBW FILE WAS UPDATED (structure_opt.gbw) ****
             **** DENSITY structure_opt.scfp WAS UPDATED ****
----------------
ORBITAL ENERGIES
----------------

  NO   OCC          E(Eh)            E(eV) 
   0   2.0000     -88.720167     -2414.1985 
   1   2.0000     -24.793481      -674.6649 
   2   2.0000     -19.275878      -524.5233 
   3   2.0000     -19.244187      -523.6610 
   4   2.0000     -14.670097      -399.1936 
   5   2.0000     -14.435787      -392.8177 
   6   2.0000     -10.437936      -284.0307 
   7   2.0000     -10.364417      -282.0301 
   8   2.0000     -10.338470      -281.3241 
   9   2.0000     -10.321465      -280.8613 
  10   2.0000     -10.290777      -280.0263 
  11   2.0000     -10.235939      -278.5340 
  12   2.0000      -7.916055      -215.4068 
  13   2.0000      -5.879196      -159.9810 
  14   2.0000      -5.871807      -159.7800 
  15   2.0000      -5.871804      -159.7799 
  16   2.0000      -1.396521       -38.0013 
  17   2.0000      -1.348497       -36.6945 
  18   2.0000      -1.151763       -31.3411 
  19   2.0000      -1.109524       -30.1917 
  20   2.0000      -1.008684       -27.4477 
  21   2.0000      -0.943679       -25.6788 
  22   2.0000      -0.874264       -23.7899 
  23   2.0000      -0.836214       -22.7545 
  24   2.0000      -0.796914       -21.6851 
  25   2.0000      -0.769437       -20.9375 
  26   2.0000      -0.706223       -19.2173 
  27   2.0000      -0.686801       -18.6888 
  28   2.0000      -0.669649       -18.2221 
  29   2.0000      -0.665157       -18.0998 
  30   2.0000      -0.661994       -18.0138 
  31   2.0000      -0.633521       -17.2390 
  32   2.0000      -0.620546       -16.8859 
  33   2.0000      -0.615511       -16.7489 
  34   2.0000      -0.564021       -15.3478 
  35   2.0000      -0.537380       -14.6229 
  36   2.0000      -0.528193       -14.3728 
  37   2.0000      -0.528172       -14.3723 
  38   2.0000      -0.494507       -13.4562 
  39   2.0000      -0.494315       -13.4510 
  40   2.0000      -0.456359       -12.4182 
  41   2.0000      -0.432756       -11.7759 
  42   2.0000      -0.421925       -11.4812 
  43   2.0000      -0.416725       -11.3397 
  44   2.0000      -0.408268       -11.1095 
  45   2.0000      -0.390698       -10.6314 
  46   2.0000      -0.385193       -10.4816 
  47   2.0000      -0.258988        -7.0474 
  48   2.0000      -0.258959        -7.0466 
  49   0.0000      -0.065036        -1.7697 
  50   0.0000       0.022428         0.6103 
  51   0.0000       0.055050         1.4980 
  52   0.0000       0.055287         1.5044 
  53   0.0000       0.056774         1.5449 
  54   0.0000       0.067669         1.8414 
  55   0.0000       0.073016         1.9869 
  56   0.0000       0.085240         2.3195 
  57   0.0000       0.090488         2.4623 
  58   0.0000       0.090588         2.4650 
  59   0.0000       0.099588         2.7099 
  60   0.0000       0.114655         3.1199 
  61   0.0000       0.116158         3.1608 
  62   0.0000       0.125856         3.4247 
  63   0.0000       0.129271         3.5176 
  64   0.0000       0.130266         3.5447 
  65   0.0000       0.140342         3.8189 
  66   0.0000       0.144463         3.9310 
  67   0.0000       0.153953         4.1893 
  68   0.0000       0.157889         4.2964 
  69   0.0000       0.164227         4.4688 
  70   0.0000       0.167679         4.5628 
  71   0.0000       0.170249         4.6327 
  72   0.0000       0.171413         4.6644 
  73   0.0000       0.178548         4.8585 
  74   0.0000       0.179685         4.8895 
  75   0.0000       0.181076         4.9273 
  76   0.0000       0.191020         5.1979 
  77   0.0000       0.191368         5.2074 
  78   0.0000       0.194272         5.2864 
  79   0.0000       0.199713         5.4345 
  80   0.0000       0.204839         5.5740 
  81   0.0000       0.211087         5.7440 
  82   0.0000       0.220185         5.9915 
  83   0.0000       0.222591         6.0570 
  84   0.0000       0.233283         6.3480 
  85   0.0000       0.236710         6.4412 
  86   0.0000       0.245874         6.6906 
  87   0.0000       0.256392         6.9768 
  88   0.0000       0.260817         7.0972 
  89   0.0000       0.265507         7.2248 
  90   0.0000       0.270593         7.3632 
  91   0.0000       0.273871         7.4524 
  92   0.0000       0.278050         7.5661 
  93   0.0000       0.278220         7.5708 
  94   0.0000       0.281495         7.6599 
  95   0.0000       0.295716         8.0468 
  96   0.0000       0.299983         8.1630 
  97   0.0000       0.312026         8.4907 
  98   0.0000       0.313432         8.5289 
  99   0.0000       0.321547         8.7497 
 100   0.0000       0.327376         8.9084 
 101   0.0000       0.336689         9.1618 
 102   0.0000       0.349027         9.4975 
 103   0.0000       0.349600         9.5131 
 104   0.0000       0.360746         9.8164 
 105   0.0000       0.362051         9.8519 
 106   0.0000       0.369075        10.0431 
 107   0.0000       0.373680        10.1684 
 108   0.0000       0.395107        10.7514 
 109   0.0000       0.404589        11.0094 
 110   0.0000       0.408170        11.1069 
 111   0.0000       0.408779        11.1234 
 112   0.0000       0.418515        11.3884 
 113   0.0000       0.427682        11.6378 
 114   0.0000       0.435913        11.8618 
 115   0.0000       0.451265        12.2795 
 116   0.0000       0.452437        12.3114 
 117   0.0000       0.456953        12.4343 
 118   0.0000       0.457065        12.4374 
 119   0.0000       0.486952        13.2506 
 120   0.0000       0.491126        13.3642 
 121   0.0000       0.504767        13.7354 
 122   0.0000       0.518288        14.1033 
 123   0.0000       0.527119        14.3436 
 124   0.0000       0.527240        14.3469 
 125   0.0000       0.549080        14.9412 
 126   0.0000       0.581304        15.8181 
 127   0.0000       0.609889        16.5959 
 128   0.0000       0.611879        16.6501 
 129   0.0000       0.618608        16.8332 
 130   0.0000       0.625663        17.0251 
 131   0.0000       0.637800        17.3554 
 132   0.0000       0.647728        17.6256 
 133   0.0000       0.657559        17.8931 
 134   0.0000       0.667885        18.1741 
 135   0.0000       0.700036        19.0490 
 136   0.0000       0.701773        19.0962 
 137   0.0000       0.724879        19.7250 
 138   0.0000       0.743585        20.2340 
 139   0.0000       0.770613        20.9695 
 140   0.0000       0.770766        20.9736 
 141   0.0000       0.777180        21.1481 
 142   0.0000       0.809907        22.0387 
 143   0.0000       0.826083        22.4789 
 144   0.0000       0.834888        22.7185 
 145   0.0000       0.847507        23.0618 
 146   0.0000       0.850051        23.1311 
 147   0.0000       0.871613        23.7178 
 148   0.0000       0.897515        24.4226 
 149   0.0000       0.909587        24.7511 
 150   0.0000       0.918610        24.9966 
 151   0.0000       0.933333        25.3973 
 152   0.0000       0.953485        25.9456 
 153   0.0000       0.953693        25.9513 
 154   0.0000       0.960090        26.1254 
 155   0.0000       0.972118        26.4527 
 156   0.0000       0.975594        26.5473 
 157   0.0000       0.982316        26.7302 
 158   0.0000       1.001771        27.2596 
 159   0.0000       1.004248        27.3270 
 160   0.0000       1.004253        27.3271 
 161   0.0000       1.033789        28.1308 
 162   0.0000       1.043094        28.3840 
 163   0.0000       1.061698        28.8903 
 164   0.0000       1.074080        29.2272 
 165   0.0000       1.079318        29.3697 
 166   0.0000       1.083316        29.4785 
 167   0.0000       1.139494        31.0072 
 168   0.0000       1.144236        31.1363 
 169   0.0000       1.151438        31.3322 
 170   0.0000       1.172378        31.9020 
 171   0.0000       1.181977        32.1632 
 172   0.0000       1.198202        32.6047 
 173   0.0000       1.209567        32.9140 
 174   0.0000       1.248546        33.9747 
 175   0.0000       1.259922        34.2842 
 176   0.0000       1.276621        34.7386 
 177   0.0000       1.278630        34.7933 
 178   0.0000       1.278934        34.8016 
 179   0.0000       1.292423        35.1686 
 180   0.0000       1.297777        35.3143 
 181   0.0000       1.356208        36.9043 
 182   0.0000       1.393582        37.9213 
 183   0.0000       1.405553        38.2470 
 184   0.0000       1.470574        40.0164 
 185   0.0000       1.506257        40.9873 
 186   0.0000       1.555182        42.3187 
 187   0.0000       1.586438        43.1692 
 188   0.0000       1.589514        43.2529 
 189   0.0000       1.590148        43.2701 
 190   0.0000       1.617001        44.0008 
 191   0.0000       1.631420        44.3932 
 192   0.0000       1.654848        45.0307 
 193   0.0000       1.655960        45.0610 
 194   0.0000       1.692088        46.0441 
 195   0.0000       1.692205        46.0472 
 196   0.0000       1.703305        46.3493 
 197   0.0000       1.715033        46.6684 
 198   0.0000       1.748660        47.5835 
 199   0.0000       1.760658        47.9099 
 200   0.0000       1.786677        48.6179 
 201   0.0000       1.809051        49.2268 
 202   0.0000       1.809191        49.2306 
 203   0.0000       1.812148        49.3110 
 204   0.0000       1.840609        50.0855 
 205   0.0000       1.843334        50.1597 
 206   0.0000       1.868843        50.8538 
 207   0.0000       1.909698        51.9655 
 208   0.0000       1.933685        52.6183 
 209   0.0000       1.946772        52.9744 
 210   0.0000       1.968802        53.5738 
 211   0.0000       1.968927        53.5772 
 212   0.0000       1.990491        54.1640 
 213   0.0000       2.010709        54.7142 
 214   0.0000       2.031695        55.2852 
 215   0.0000       2.045063        55.6490 
 216   0.0000       2.049090        55.7586 
 217   0.0000       2.109851        57.4120 
 218   0.0000       2.140347        58.2418 
 219   0.0000       2.147083        58.4251 
 220   0.0000       2.167665        58.9852 
 221   0.0000       2.171542        59.0907 
 222   0.0000       2.176032        59.2128 
 223   0.0000       2.205390        60.0117 
 224   0.0000       2.292420        62.3799 
 225   0.0000       2.323591        63.2281 
 226   0.0000       2.332027        63.4577 
 227   0.0000       2.332362        63.4668 
 228   0.0000       2.398943        65.2786 
 229   0.0000       2.429068        66.0983 
 230   0.0000       2.493202        67.8435 
 231   0.0000       2.563257        69.7498 
 232   0.0000       2.587999        70.4230 
 233   0.0000       2.595351        70.6231 
 234   0.0000       2.604078        70.8606 
 235   0.0000       2.626918        71.4821 
 236   0.0000       2.658124        72.3312 
 237   0.0000       2.658625        72.3449 
 238   0.0000       2.673778        72.7572 
 239   0.0000       2.674150        72.7673 
 240   0.0000       2.691943        73.2515 
 241   0.0000       2.766342        75.2760 
 242   0.0000       2.784893        75.7808 
 243   0.0000       2.828530        76.9682 
 244   0.0000       2.839587        77.2691 
 245   0.0000       2.857503        77.7566 
 246   0.0000       2.867064        78.0168 
 247   0.0000       2.882774        78.4443 
 248   0.0000       2.893413        78.7338 
 249   0.0000       2.901270        78.9476 
 250   0.0000       2.930881        79.7533 
 251   0.0000       2.937020        79.9204 
 252   0.0000       2.959881        80.5425 
 253   0.0000       2.976152        80.9852 
 254   0.0000       2.986283        81.2609 
 255   0.0000       3.001322        81.6701 
 256   0.0000       3.007267        81.8319 
 257   0.0000       3.097242        84.2802 
 258   0.0000       3.152587        85.7863 
 259   0.0000       3.188394        86.7606 
 260   0.0000       3.268211        88.9325 
 261   0.0000       3.307263        89.9952 
 262   0.0000       3.307535        90.0026 
 263   0.0000       3.336078        90.7793 
 264   0.0000       3.367821        91.6431 
 265   0.0000       3.453636        93.9782 
 266   0.0000       3.496586        95.1469 
 267   0.0000       3.558360        96.8279 
 268   0.0000       3.593002        97.7705 
 269   0.0000       3.680585       100.1538 
 270   0.0000       3.703339       100.7730 
 271   0.0000       3.753073       102.1263 
 272   0.0000       3.853193       104.8507 
 273   0.0000       3.882926       105.6598 
 274   0.0000       3.889388       105.8356 
 275   0.0000       3.890812       105.8744 
 276   0.0000       3.902427       106.1904 
 277   0.0000       3.924187       106.7826 
 278   0.0000       4.011279       109.1525 
 279   0.0000       4.059289       110.4589 
 280   0.0000       4.119646       112.1013 
 281   0.0000       4.143609       112.7533 
 282   0.0000       4.168914       113.4419 
 283   0.0000       4.405319       119.8748 
 284   0.0000       4.477845       121.8484 
 285   0.0000       4.503549       122.5478 
 286   0.0000       4.760200       129.5316 
 287   0.0000       4.943481       134.5190 
 288   0.0000       5.070983       137.9885 
 289   0.0000       5.099295       138.7589 
 290   0.0000       5.190584       141.2430 
 291   0.0000       5.218705       142.0082 
 292   0.0000       5.314611       144.6179 
 293   0.0000       5.698199       155.0559 
 294   0.0000       6.129737       166.7986 
 295   0.0000       6.407455       174.3557 
 296   0.0000       6.539081       177.9374 
 297   0.0000       6.845062       186.2636 
 298   0.0000       7.975849       217.0339 
 299   0.0000      17.544322       477.4053 
 300   0.0000      17.544558       477.4117 
 301   0.0000      17.630519       479.7508 
 302   0.0000      23.648833       643.5175 
 303   0.0000      23.890027       650.0807 
 304   0.0000      23.983861       652.6340 
 305   0.0000      24.029725       653.8821 
 306   0.0000      24.070811       655.0001 
 307   0.0000      24.180954       657.9972 
 308   0.0000      35.374881       962.5994 
 309   0.0000      35.656718       970.2686 
 310   0.0000      49.899068      1357.8227 
 311   0.0000      49.963089      1359.5648 
 312   0.0000      66.792302      1817.5109 
 313   0.0000     188.964683      5141.9904 

--------------------
FRAGMENT INFORMATION
--------------------
Fragment  1:    0   1   2   3   4   5 
Fragment  2:    6   7   8   9  10  11  12 
Fragment  3:   13  14  15  16 
Fragment  4:   17 


                    ********************************
                    * MULLIKEN POPULATION ANALYSIS *
                    ********************************

-------------------------
MULLIKEN FRAGMENT CHARGES
-------------------------
 Fragment   0 :  -0.438886
 Fragment   1 :   0.438820
 Fragment   2 :  -0.029535
 Fragment   3 :  -0.970399
Sum of fragment charges:   -1.0000000

---------------------------------
MULLIKEN FRAGMENT OVERLAP CHARGES
---------------------------------
                  0          1          2          3    
      0      21.364609   0.636351  -0.000014  -0.000009
      1       0.636351  34.986381  -0.000001  -0.000064
      2      -0.000014  -0.000001  11.657101  -0.693991
      3      -0.000009  -0.000064  -0.693991  17.317431

-----------------------
MULLIKEN ATOMIC CHARGES
-----------------------
   0 C :   -0.054104
   1 N :   -0.203123
   2 C :   -0.291002
   3 C :   -0.267875
   4 C :    0.446894
   5 C :   -0.069676
   6 N :   -0.072414
   7 O :   -0.052429
   8 O :   -0.238539
   9 F :   -0.101570
  10 H :    0.296631
  11 H :    0.281047
  12 H :    0.326095
  13 C :   -0.410404
  14 H :    0.126852
  15 H :    0.127153
  16 H :    0.126864
  17 S :   -0.970399
Sum of atomic charges:   -1.0000000

--------------------------------
MULLIKEN REDUCED ORBITAL CHARGES
--------------------------------
  0 C s       :     3.288446  s :     3.288446
      pz      :     0.685471  p :     2.605188
      px      :     0.978031
      py      :     0.941687
      dz2     :     0.052759  d :     0.160470
      dxz     :     0.048848
      dyz     :     0.028449
      dx2y2   :     0.013770
      dxy     :     0.016645
  1 N s       :     3.625554  s :     3.625554
      pz      :     1.141498  p :     3.547041
      px      :     1.241210
      py      :     1.164333
      dz2     :     0.008168  d :     0.030528
      dxz     :     0.007239
      dyz     :     0.004757
      dx2y2   :     0.005506
      dxy     :     0.004859
  2 C s       :     3.374658  s :     3.374658
      pz      :     0.812257  p :     2.832193
      px      :     1.166744
      py      :     0.853192
      dz2     :     0.023580  d :     0.084152
      dxz     :     0.032199
      dyz     :     0.014802
      dx2y2   :     0.007222
      dxy     :     0.006349
  3 C s       :     3.215338  s :     3.215338
      pz      :     1.161780  p :     2.999376
      px      :     0.870328
      py      :     0.967269
      dz2     :     0.015294  d :     0.053160
      dxz     :     0.017413
      dyz     :     0.005093
      dx2y2   :     0.008213
      dxy     :     0.007148
  4 C s       :     2.507663  s :     2.507663
      pz      :     0.895656  p :     2.988348
      px      :     1.245735
      py      :     0.846957
      dz2     :     0.016547  d :     0.057095
      dxz     :     0.015857
      dyz     :     0.010571
      dx2y2   :     0.007215
      dxy     :     0.006905
  5 C s       :     3.317518  s :     3.317518
      pz      :     1.071475  p :     2.679018
      px      :     0.484033
      py      :     1.123510
      dz2     :     0.013629  d :     0.073141
      dxz     :     0.029766
      dyz     :     0.010341
      dx2y2   :     0.011216
      dxy     :     0.008188
  6 N s       :     3.588889  s :     3.588889
      pz      :     1.059220  p :     3.374527
      px      :     1.213340
      py      :     1.101967
      dz2     :     0.027719  d :     0.108998
      dxz     :     0.039365
      dyz     :     0.023078
      dx2y2   :     0.008551
      dxy     :     0.010285
  7 O s       :     3.778651  s :     3.778651
      pz      :     1.026357  p :     4.255078
      px      :     1.828380
      py      :     1.400341
      dz2     :     0.009711  d :     0.018700
      dxz     :     0.003513
      dyz     :     0.005308
      dx2y2   :     0.000102
      dxy     :     0.000067
  8 O s       :     3.824930  s :     3.824930
      pz      :     1.624681  p :     4.401494
      px      :     1.218123
      py      :     1.558690
      dz2     :     0.001058  d :     0.012114
      dxz     :     0.004900
      dyz     :     0.000879
      dx2y2   :     0.003118
      dxy     :     0.002159
  9 F s       :     3.918064  s :     3.918064
      pz      :     1.388362  p :     5.178172
      px      :     1.915739
      py      :     1.874071
      dz2     :     0.003098  d :     0.005334
      dxz     :     0.000998
      dyz     :     0.001202
      dx2y2   :     0.000027
      dxy     :     0.000009
 10 H s       :     0.679470  s :     0.679470
      pz      :     0.005481  p :     0.023899
      px      :     0.014122
      py      :     0.004296
 11 H s       :     0.693991  s :     0.693991
      pz      :     0.016373  p :     0.024962
      px      :     0.003654
      py      :     0.004935
 12 H s       :     0.648384  s :     0.648384
      pz      :     0.007743  p :     0.025522
      px      :     0.013378
      py      :     0.004401
 13 C s       :     3.269776  s :     3.269776
      pz      :     0.998920  p :     3.088052
      px      :     1.057649
      py      :     1.031483
      dz2     :     0.014892  d :     0.052576
      dxz     :     0.004651
      dyz     :     0.013271
      dx2y2   :     0.005747
      dxy     :     0.014015
 14 H s       :     0.850413  s :     0.850413
      pz      :     0.010634  p :     0.022734
      px      :     0.004692
      py      :     0.007408
 15 H s       :     0.850100  s :     0.850100
      pz      :     0.004723  p :     0.022747
      px      :     0.008723
      py      :     0.009302
 16 H s       :     0.850418  s :     0.850418
      pz      :     0.004688  p :     0.022718
      px      :     0.011850
      py      :     0.006180
 17 S s       :     6.022468  s :     6.022468
      pz      :     3.294420  p :    10.916533
      px      :     3.960691
      py      :     3.661422
      dz2     :     0.008359  d :     0.031398
      dxz     :     0.003943
      dyz     :     0.014448
      dx2y2   :     0.002393
      dxy     :     0.002254


                     *******************************
                     * LOEWDIN POPULATION ANALYSIS *
                     *******************************

------------------------
LOEWDIN FRAGMENT CHARGES
------------------------
 Fragment   0 :   0.057800
 Fragment   1 :  -0.057805
 Fragment   2 :  -0.355276
 Fragment   3 :  -0.644718

----------------------------
LOEWDIN FRAGMENT BOND ORDERS
----------------------------
                  0          1          2          3    
      0      56.960723   6.778943   0.000003   0.000021
      1       6.778943  43.787624   0.000001   0.000006
      2       0.000003   0.000001  15.419822   1.742300
      3       0.000021   0.000006   1.742300  16.644718

----------------------
LOEWDIN ATOMIC CHARGES
----------------------
   0 C :    0.111559
   1 N :   -0.111713
   2 C :    0.077458
   3 C :   -0.033838
   4 C :    0.078036
   5 C :   -0.063702
   6 N :    0.241416
   7 O :   -0.153944
   8 O :   -0.339047
   9 F :   -0.078009
  10 H :    0.087055
  11 H :    0.084557
  12 H :    0.100166
  13 C :   -0.358789
  14 H :    0.001118
  15 H :    0.001163
  16 H :    0.001232
  17 S :   -0.644718

-------------------------------
LOEWDIN REDUCED ORBITAL CHARGES
-------------------------------
  0 C s       :     2.743738  s :     2.743738
      pz      :     0.849396  p :     2.815567
      px      :     1.080434
      py      :     0.885737
      dz2     :     0.112516  d :     0.329136
      dxz     :     0.100728
      dyz     :     0.050396
      dx2y2   :     0.033877
      dxy     :     0.031620
  1 N s       :     3.151637  s :     3.151637
      pz      :     1.301179  p :     3.903237
      px      :     1.416873
      py      :     1.185186
      dz2     :     0.017390  d :     0.056839
      dxz     :     0.015719
      dyz     :     0.007788
      dx2y2   :     0.009545
      dxy     :     0.006398
  2 C s       :     2.786892  s :     2.786892
      pz      :     1.032886  p :     2.953806
      px      :     1.096535
      py      :     0.824386
      dz2     :     0.060301  d :     0.181844
      dxz     :     0.069061
      dyz     :     0.027978
      dx2y2   :     0.014015
      dxy     :     0.010489
  3 C s       :     2.781254  s :     2.781254
      pz      :     1.081337  p :     3.128226
      px      :     1.092129
      py      :     0.954760
      dz2     :     0.034119  d :     0.124358
      dxz     :     0.045069
      dyz     :     0.008010
      dx2y2   :     0.022212
      dxy     :     0.014947
  4 C s       :     2.779223  s :     2.779223
      pz      :     1.065817  p :     3.014443
      px      :     1.108254
      py      :     0.840372
      dz2     :     0.040906  d :     0.128298
      dxz     :     0.039164
      dyz     :     0.021255
      dx2y2   :     0.015050
      dxy     :     0.011923
  5 C s       :     2.757960  s :     2.757960
      pz      :     1.088417  p :     3.125417
      px      :     0.957240
      py      :     1.079760
      dz2     :     0.039911  d :     0.180325
      dxz     :     0.071776
      dyz     :     0.019836
      dx2y2   :     0.031419
      dxy     :     0.017383
  6 N s       :     3.052068  s :     3.052068
      pz      :     1.205980  p :     3.500155
      px      :     1.215049
      py      :     1.079126
      dz2     :     0.060434  d :     0.206361
      dxz     :     0.076196
      dyz     :     0.035694
      dx2y2   :     0.017513
      dxy     :     0.016523
  7 O s       :     3.581246  s :     3.581246
      pz      :     1.283679  p :     4.540382
      px      :     1.838823
      py      :     1.417880
      dz2     :     0.020439  d :     0.032316
      dxz     :     0.005158
      dyz     :     0.006530
      dx2y2   :     0.000119
      dxy     :     0.000071
  8 O s       :     3.667378  s :     3.667378
      pz      :     1.709913  p :     4.651188
      px      :     1.369859
      py      :     1.571415
      dz2     :     0.001545  d :     0.020482
      dxz     :     0.009263
      dyz     :     0.001173
      dx2y2   :     0.005711
      dxy     :     0.002789
  9 F s       :     3.715002  s :     3.715002
      pz      :     1.535099  p :     5.355635
      px      :     1.934329
      py      :     1.886208
      dz2     :     0.004767  d :     0.007372
      dxz     :     0.001184
      dyz     :     0.001375
      dx2y2   :     0.000037
      dxy     :     0.000009
 10 H s       :     0.842543  s :     0.842543
      pz      :     0.016676  p :     0.070402
      px      :     0.042301
      py      :     0.011425
 11 H s       :     0.842991  s :     0.842991
      pz      :     0.047835  p :     0.072451
      px      :     0.011210
      py      :     0.013406
 12 H s       :     0.826606  s :     0.826606
      pz      :     0.023098  p :     0.073228
      px      :     0.038711
      py      :     0.011418
 13 C s       :     2.858156  s :     2.858156
      pz      :     1.143782  p :     3.393801
      px      :     1.119450
      py      :     1.130569
      dz2     :     0.030583  d :     0.106833
      dxz     :     0.008935
      dyz     :     0.028701
      dx2y2   :     0.010940
      dxy     :     0.027674
 14 H s       :     0.927075  s :     0.927075
      pz      :     0.035337  p :     0.071807
      px      :     0.013614
      py      :     0.022856
 15 H s       :     0.926985  s :     0.926985
      pz      :     0.014630  p :     0.071852
      px      :     0.027132
      py      :     0.030090
 16 H s       :     0.927015  s :     0.927015
      pz      :     0.014390  p :     0.071753
      px      :     0.038040
      py      :     0.019323
 17 S s       :     5.614198  s :     5.614198
      pz      :     3.402037  p :    10.993431
      px      :     3.909803
      py      :     3.681591
      dz2     :     0.009815  d :     0.037090
      dxz     :     0.004526
      dyz     :     0.017369
      dx2y2   :     0.002785
      dxy     :     0.002594


                      *****************************
                      * MAYER POPULATION ANALYSIS *
                      *****************************

  NA   - Mulliken gross atomic population
  ZA   - Total nuclear charge
  QA   - Mulliken gross atomic charge
  VA   - Mayer's total valence
  BVA  - Mayer's bonded valence
  FA   - Mayer's free valence

  ATOM       NA         ZA         QA         VA         BVA        FA
  0 C      6.0541     6.0000    -0.0541     4.3650     4.3650     0.0000
  1 N      7.2031     7.0000    -0.2031     2.6991     2.6991     0.0000
  2 C      6.2910     6.0000    -0.2910     3.9744     3.9744     0.0000
  3 C      6.2679     6.0000    -0.2679     4.3639     4.3639    -0.0000
  4 C      5.5531     6.0000     0.4469     4.0964     4.0964     0.0000
  5 C      6.0697     6.0000    -0.0697     3.3438     3.3438    -0.0000
  6 N      7.0724     7.0000    -0.0724     3.9179     3.9179    -0.0000
  7 O      8.0524     8.0000    -0.0524     2.1922     2.1922    -0.0000
  8 O      8.2385     8.0000    -0.2385     1.9956     1.9956     0.0000
  9 F      9.1016     9.0000    -0.1016     0.9624     0.9624     0.0000
 10 H      0.7034     1.0000     0.2966     0.8704     0.8704     0.0000
 11 H      0.7190     1.0000     0.2810     0.9040     0.9040    -0.0000
 12 H      0.6739     1.0000     0.3261     0.8337     0.8337    -0.0000
 13 C      6.4104     6.0000    -0.4104     3.5643     3.5643    -0.0000
 14 H      0.8731     1.0000     0.1269     0.9425     0.9425    -0.0000
 15 H      0.8728     1.0000     0.1272     0.9425     0.9425    -0.0000
 16 H      0.8731     1.0000     0.1269     0.9426     0.9426    -0.0000
 17 S     16.9704    16.0000    -0.9704     0.5885     0.5885    -0.0000

  Mayer bond orders larger than 0.100000
B(  0-C ,  1-N ) :   1.2972 B(  0-C ,  2-C ) :   0.1873 B(  0-C ,  3-C ) :   0.1654 
B(  0-C ,  4-C ) :   0.2748 B(  0-C ,  5-C ) :   1.2256 B(  0-C ,  6-N ) :  -0.1809 
B(  0-C ,  9-F ) :   1.4053 B(  1-N ,  2-C ) :   1.1816 B(  1-N ,  5-C ) :   0.1717 
B(  2-C ,  3-C ) :   1.5892 B(  2-C , 10-H ) :   0.8834 B(  3-C ,  4-C ) :   1.4939 
B(  3-C ,  8-O ) :   0.1319 B(  3-C , 11-H ) :   0.8424 B(  4-C ,  5-C ) :   1.5666 
B(  4-C ,  6-N ) :  -0.1488 B(  4-C ,  8-O ) :   0.1627 B(  4-C ,  9-F ) :  -0.1234 
B(  4-C , 12-H ) :   0.7582 B(  5-C ,  6-N ) :   0.7595 B(  5-C ,  8-O ) :  -0.1635 
B(  5-C ,  9-F ) :  -0.3600 B(  5-C , 12-H ) :   0.1146 B(  6-N ,  7-O ) :   1.8479 
[...]
 289   0.0000       5.123770       139.4249 
 290   0.0000       5.195065       141.3649 
 291   0.0000       5.286216       143.8452 
 292   0.0000       5.370250       146.1319 
 293   0.0000       5.859088       159.4339 
 294   0.0000       6.334850       172.3800 
 295   0.0000       6.415659       174.5790 
 296   0.0000       6.549193       178.2126 
 297   0.0000       6.865795       186.8278 
 298   0.0000       7.975885       217.0349 
 299   0.0000      17.544340       477.4058 
 300   0.0000      17.544575       477.4122 
 301   0.0000      17.630571       479.7522 
 302   0.0000      23.699226       644.8887 
 303   0.0000      23.954102       651.8243 
 304   0.0000      24.018129       653.5665 
 305   0.0000      24.029300       653.8705 
 306   0.0000      24.135402       656.7577 
 307   0.0000      24.245077       659.7421 
 308   0.0000      35.449714       964.6357 
 309   0.0000      35.736048       972.4273 
 310   0.0000      49.920235      1358.3987 
 311   0.0000      50.036477      1361.5618 
 312   0.0000      66.805835      1817.8792 
 313   0.0000     188.964719      5141.9914 

--------------------
FRAGMENT INFORMATION
--------------------
Fragment  1:    0   1   2   3   4   5 
Fragment  2:    6   7   8   9  10  11  12 
Fragment  3:   13  14  15  16 
Fragment  4:   17 


                    ********************************
                    * MULLIKEN POPULATION ANALYSIS *
                    ********************************

-------------------------
MULLIKEN FRAGMENT CHARGES
-------------------------
 Fragment   0 :  -0.453555
 Fragment   1 :   0.453490
 Fragment   2 :  -0.029562
 Fragment   3 :  -0.970374
Sum of fragment charges:   -1.0000000

---------------------------------
MULLIKEN FRAGMENT OVERLAP CHARGES
---------------------------------
                  0          1          2          3    
      0      19.646082   0.493587  -0.000013  -0.000006
      1       0.493587  35.116920  -0.000001  -0.000064
      2      -0.000013  -0.000001  11.657063  -0.694158
      3      -0.000006  -0.000064  -0.694158  17.317488

-----------------------
MULLIKEN ATOMIC CHARGES
-----------------------
   0 C :   -0.022369
   1 N :   -0.192040
   2 C :   -0.282810
   3 C :   -0.327047
   4 C :    0.516988
   5 C :   -0.146276
   6 N :   -0.023957
   7 O :   -0.171300
   8 O :   -0.119701
   9 F :   -0.117040
  10 H :    0.285582
  11 H :    0.279703
  12 H :    0.320203
  13 C :   -0.410381
  14 H :    0.126820
  15 H :    0.127075
  16 H :    0.126924
  17 S :   -0.970374
Sum of atomic charges:   -1.0000000

--------------------------------
MULLIKEN REDUCED ORBITAL CHARGES
--------------------------------
  0 C s       :     3.246024  s :     3.246024
      pz      :     0.678894  p :     2.606087
      px      :     0.981969
      py      :     0.945224
      dz2     :     0.057138  d :     0.170257
      dxz     :     0.050621
      dyz     :     0.029436
      dx2y2   :     0.014668
      dxy     :     0.018394
  1 N s       :     3.604754  s :     3.604754
      pz      :     1.150788  p :     3.552751
      px      :     1.248809
      py      :     1.153154
      dz2     :     0.008779  d :     0.034536
      dxz     :     0.008568
      dyz     :     0.005219
      dx2y2   :     0.006118
      dxy     :     0.005851
  2 C s       :     3.320258  s :     3.320258
      pz      :     0.826114  p :     2.873602
      px      :     1.177051
      py      :     0.870437
      dz2     :     0.025197  d :     0.088950
      dxz     :     0.033437
      dyz     :     0.015889
      dx2y2   :     0.007905
      dxy     :     0.006522
  3 C s       :     3.260641  s :     3.260641
      pz      :     1.160588  p :     3.010794
      px      :     0.881508
      py      :     0.968698
      dz2     :     0.015870  d :     0.055612
      dxz     :     0.018421
      dyz     :     0.005670
      dx2y2   :     0.008178
      dxy     :     0.007473
  4 C s       :     2.420022  s :     2.420022
      pz      :     0.916145  p :     3.003333
      px      :     1.237956
      py      :     0.849232
      dz2     :     0.017051  d :     0.059657
      dxz     :     0.016309
      dyz     :     0.011346
      dx2y2   :     0.007726
      dxy     :     0.007225
  5 C s       :     3.362881  s :     3.362881
      pz      :     1.077848  p :     2.709794
      px      :     0.501658
      py      :     1.130288
      dz2     :     0.013354  d :     0.073601
      dxz     :     0.030658
      dyz     :     0.010359
      dx2y2   :     0.011145
      dxy     :     0.008085
  6 N s       :     3.492269  s :     3.492269
      pz      :     1.053503  p :     3.394234
      px      :     1.231608
      py      :     1.109124
      dz2     :     0.037109  d :     0.137453
      dxz     :     0.044554
      dyz     :     0.027903
      dx2y2   :     0.012454
      dxy     :     0.015433
  7 O s       :     3.806270  s :     3.806270
      pz      :     1.027254  p :     4.346962
      px      :     1.842924
      py      :     1.476784
      dz2     :     0.009693  d :     0.018067
      dxz     :     0.003224
      dyz     :     0.004973
      dx2y2   :     0.000106
      dxy     :     0.000071
  8 O s       :     3.781790  s :     3.781790
      pz      :     1.601330  p :     4.317962
      px      :     1.282232
      py      :     1.434400
      dz2     :     0.002241  d :     0.019949
      dxz     :     0.007032
      dyz     :     0.001780
      dx2y2   :     0.004627
      dxy     :     0.004269
  9 F s       :     3.917038  s :     3.917038
      pz      :     1.397996  p :     5.194766
      px      :     1.917928
      py      :     1.878842
      dz2     :     0.003051  d :     0.005237
      dxz     :     0.000973
      dyz     :     0.001173
      dx2y2   :     0.000030
      dxy     :     0.000010
 10 H s       :     0.691122  s :     0.691122
      pz      :     0.004477  p :     0.023297
      px      :     0.014504
      py      :     0.004315
 11 H s       :     0.695107  s :     0.695107
      pz      :     0.016418  p :     0.025190
      px      :     0.003789
      py      :     0.004983
 12 H s       :     0.653984  s :     0.653984
      pz      :     0.007635  p :     0.025813
      px      :     0.013707
      py      :     0.004471
 13 C s       :     3.269831  s :     3.269831
      pz      :     0.998801  p :     3.087975
      px      :     1.057654
      py      :     1.031520
      dz2     :     0.014884  d :     0.052574
      dxz     :     0.004658
      dyz     :     0.013282
      dx2y2   :     0.005747
      dxy     :     0.014003
 14 H s       :     0.850454  s :     0.850454
      pz      :     0.010624  p :     0.022727
      px      :     0.004689
      py      :     0.007413
 15 H s       :     0.850192  s :     0.850192
      pz      :     0.004717  p :     0.022733
      px      :     0.008718
      py      :     0.009297
 16 H s       :     0.850352  s :     0.850352
      pz      :     0.004689  p :     0.022724
      px      :     0.011853
      py      :     0.006182
 17 S s       :     6.022532  s :     6.022532
      pz      :     3.293321  p :    10.916443
      px      :     3.960766
      py      :     3.662357
      dz2     :     0.008386  d :     0.031399
      dxz     :     0.003946
      dyz     :     0.014436
      dx2y2   :     0.002384
      dxy     :     0.002247


                     *******************************
                     * LOEWDIN POPULATION ANALYSIS *
                     *******************************

------------------------
LOEWDIN FRAGMENT CHARGES
------------------------
 Fragment   0 :   0.039918
 Fragment   1 :  -0.039923
 Fragment   2 :  -0.355295
 Fragment   3 :  -0.644700

----------------------------
LOEWDIN FRAGMENT BOND ORDERS
----------------------------
                  0          1          2          3    
      0      57.186523   6.721112   0.000003   0.000021
      1       6.721112  44.210101   0.000001   0.000006
      2       0.000003   0.000001  15.419682   1.742348
      3       0.000021   0.000006   1.742348  16.644700

----------------------
LOEWDIN ATOMIC CHARGES
----------------------
   0 C :    0.083341
   1 N :   -0.080377
   2 C :    0.058266
   3 C :   -0.033075
   4 C :    0.075018
   5 C :   -0.063255
   6 N :    0.202482
   7 O :   -0.224467
   8 O :   -0.198008
   9 F :   -0.088245
  10 H :    0.083815
  11 H :    0.085972
  12 H :    0.098528
  13 C :   -0.358862
  14 H :    0.001151
  15 H :    0.001240
  16 H :    0.001176
  17 S :   -0.644700

-------------------------------
LOEWDIN REDUCED ORBITAL CHARGES
-------------------------------
  0 C s       :     2.730796  s :     2.730796
      pz      :     0.852225  p :     2.834756
      px      :     1.094863
      py      :     0.887669
      dz2     :     0.121780  d :     0.351106
      dxz     :     0.104310
      dyz     :     0.052132
      dx2y2   :     0.037286
      dxy     :     0.035598
  1 N s       :     3.108807  s :     3.108807
      pz      :     1.301312  p :     3.906600
      px      :     1.432163
      py      :     1.173125
      dz2     :     0.019037  d :     0.064971
      dxz     :     0.018271
      dyz     :     0.009039
      dx2y2   :     0.010772
      dxy     :     0.007853
  2 C s       :     2.774401  s :     2.774401
      pz      :     1.042372  p :     2.973704
      px      :     1.092570
      py      :     0.838762
      dz2     :     0.064406  d :     0.193629
      dxz     :     0.072739
      dyz     :     0.030588
      dx2y2   :     0.015181
      dxy     :     0.010715
  3 C s       :     2.772429  s :     2.772429
      pz      :     1.079715  p :     3.131222
      px      :     1.096123
      py      :     0.955383
      dz2     :     0.035189  d :     0.129425
      dxz     :     0.047292
      dyz     :     0.008815
      dx2y2   :     0.022372
      dxy     :     0.015757
  4 C s       :     2.768451  s :     2.768451
      pz      :     1.074427  p :     3.021698
      px      :     1.105215
      py      :     0.842056
      dz2     :     0.042309  d :     0.134834
      dxz     :     0.040859
      dyz     :     0.022933
      dx2y2   :     0.016095
      dxy     :     0.012638
  5 C s       :     2.752485  s :     2.752485
      pz      :     1.091010  p :     3.128965
      px      :     0.955828
      py      :     1.082128
      dz2     :     0.039841  d :     0.181804
      dxz     :     0.073665
      dyz     :     0.020111
      dx2y2   :     0.030948
      dxy     :     0.017238
  6 N s       :     2.999949  s :     2.999949
      pz      :     1.218243  p :     3.531666
      px      :     1.231814
      py      :     1.081608
      dz2     :     0.079108  d :     0.265903
      dxz     :     0.090625
      dyz     :     0.044101
      dx2y2   :     0.026958
      dxy     :     0.025110
  7 O s       :     3.573953  s :     3.573953
      pz      :     1.278851  p :     4.618968
      px      :     1.850069
      py      :     1.490048
      dz2     :     0.020355  d :     0.031546
      dxz     :     0.004819
      dyz     :     0.006165
      dx2y2   :     0.000132
      dxy     :     0.000075
  8 O s       :     3.550211  s :     3.550211
      pz      :     1.709300  p :     4.612764
      px      :     1.451092
      py      :     1.452372
      dz2     :     0.003477  d :     0.035033
      dxz     :     0.014348
      dyz     :     0.002458
      dx2y2   :     0.009107
      dxy     :     0.005643
  9 F s       :     3.713951  s :     3.713951
      pz      :     1.539226  p :     5.367031
      px      :     1.937506
      py      :     1.890299
      dz2     :     0.004699  d :     0.007263
      dxz     :     0.001169
      dyz     :     0.001345
      dx2y2   :     0.000040
      dxy     :     0.000010
 10 H s       :     0.847562  s :     0.847562
      pz      :     0.014013  p :     0.068623
      px      :     0.042960
      py      :     0.011649
 11 H s       :     0.841831  s :     0.841831
      pz      :     0.047431  p :     0.072197
      px      :     0.011376
      py      :     0.013391
 12 H s       :     0.827975  s :     0.827975
      pz      :     0.022437  p :     0.073497
      px      :     0.039497
      py      :     0.011563
 13 C s       :     2.858291  s :     2.858291
      pz      :     1.143810  p :     3.393748
      px      :     1.119451
      py      :     1.130487
      dz2     :     0.030571  d :     0.106823
      dxz     :     0.008949
      dyz     :     0.028719
      dx2y2   :     0.010936
      dxy     :     0.027648
 14 H s       :     0.927078  s :     0.927078
      pz      :     0.035300  p :     0.071772
      px      :     0.013602
      py      :     0.022870
 15 H s       :     0.926976  s :     0.926976
      pz      :     0.014611  p :     0.071784
      px      :     0.027106
      py      :     0.030067
 16 H s       :     0.927040  s :     0.927040
      pz      :     0.014397  p :     0.071784
      px      :     0.038059
      py      :     0.019328
 17 S s       :     5.614211  s :     5.614211
      pz      :     3.401219  p :    10.993396
      px      :     3.909864
      py      :     3.682313
      dz2     :     0.009849  d :     0.037092
      dxz     :     0.004530
      dyz     :     0.017354
      dx2y2   :     0.002773
      dxy     :     0.002586


                      *****************************
                      * MAYER POPULATION ANALYSIS *
                      *****************************

  NA   - Mulliken gross atomic population
  ZA   - Total nuclear charge
  QA   - Mulliken gross atomic charge
  VA   - Mayer's total valence
  BVA  - Mayer's bonded valence
  FA   - Mayer's free valence

  ATOM       NA         ZA         QA         VA         BVA        FA
  0 C      6.0224     6.0000    -0.0224     4.2935     4.2935     0.0000
  1 N      7.1920     7.0000    -0.1920     2.7254     2.7254     0.0000
  2 C      6.2828     6.0000    -0.2828     4.0253     4.0253     0.0000
  3 C      6.3270     6.0000    -0.3270     4.4958     4.4958    -0.0000
  4 C      5.4830     6.0000     0.5170     4.0104     4.0104    -0.0000
  5 C      6.1463     6.0000    -0.1463     3.3461     3.3461     0.0000
  6 N      7.0240     7.0000    -0.0240     4.0281     4.0281     0.0000
  7 O      8.1713     8.0000    -0.1713     2.0863     2.0863    -0.0000
  8 O      8.1197     8.0000    -0.1197     2.1781     2.1781    -0.0000
  9 F      9.1170     9.0000    -0.1170     0.9244     0.9244    -0.0000
 10 H      0.7144     1.0000     0.2856     0.8725     0.8725    -0.0000
 11 H      0.7203     1.0000     0.2797     0.9079     0.9079     0.0000
 12 H      0.6798     1.0000     0.3202     0.8395     0.8395     0.0000
 13 C      6.4104     6.0000    -0.4104     3.5642     3.5642    -0.0000
 14 H      0.8732     1.0000     0.1268     0.9425     0.9425     0.0000
 15 H      0.8729     1.0000     0.1271     0.9425     0.9425    -0.0000
 16 H      0.8731     1.0000     0.1269     0.9425     0.9425     0.0000
 17 S     16.9704    16.0000    -0.9704     0.5884     0.5884     0.0000

  Mayer bond orders larger than 0.100000
B(  0-C ,  1-N ) :   1.3054 B(  0-C ,  2-C ) :   0.1676 B(  0-C ,  3-C ) :   0.1876 
B(  0-C ,  4-C ) :   0.2317 B(  0-C ,  5-C ) :   1.2480 B(  0-C ,  6-N ) :  -0.1760 
B(  0-C ,  7-O ) :   0.1082 B(  0-C ,  8-O ) :  -0.1042 B(  0-C ,  9-F ) :   1.3558 
B(  1-N ,  2-C ) :   1.1654 B(  1-N ,  5-C ) :   0.1968 B(  2-C ,  3-C ) :   1.6729 
B(  2-C , 10-H ) :   0.8850 B(  3-C ,  4-C ) :   1.4360 B(  3-C ,  5-C ) :   0.1063 
B(  3-C ,  8-O ) :   0.1462 B(  3-C , 11-H ) :   0.8386 B(  4-C ,  5-C ) :   1.5459 
B(  4-C ,  8-O ) :   0.2365 B(  4-C ,  9-F ) :  -0.1323 B(  4-C , 12-H ) :   0.7272 
B(  5-C ,  6-N ) :   0.6740 B(  5-C ,  7-O ) :  -0.1304 B(  5-C ,  8-O ) :  -0.2060 
B(  5-C ,  9-F ) :  -0.3354 B(  5-C , 12-H ) :   0.1368 B(  6-N ,  7-O ) :   1.8181 
B(  6-N ,  8-O ) :   1.8536 B(  7-O ,  8-O ) :   0.2317 B( 13-C , 14-H ) :   0.9815 
B( 13-C , 15-H ) :   0.9816 B( 13-C , 16-H ) :   0.9820 B( 13-C , 17-S ) :   0.6191 


-------
TIMINGS
-------

Total SCF time: 0 days 0 hours 0 min 13 sec 

Total time                  ....      13.539 sec
Sum of individual times     ....      12.421 sec  ( 91.7%)

Fock matrix formation       ....      10.112 sec  ( 74.7%)
  Split-RI-J                ....       0.644 sec  (  6.4% of F)
  Chain of spheres X        ....       7.372 sec  ( 72.9% of F)
  XC integration            ....       1.201 sec  ( 11.9% of F)
    Basis function eval.    ....       0.073 sec  (  6.0% of XC)
    Density eval.           ....       0.062 sec  (  5.2% of XC)
    XC-Functional eval.     ....       0.203 sec  ( 16.9% of XC)
    XC-Potential eval.      ....       0.060 sec  (  5.0% of XC)
Diagonalization             ....       0.027 sec  (  0.2%)
Density matrix formation    ....       0.011 sec  (  0.1%)
Population analysis         ....       0.086 sec  (  0.6%)
Initial guess               ....       0.040 sec  (  0.3%)
Orbital Transformation      ....       0.000 sec  (  0.0%)
Orbital Orthonormalization  ....       0.020 sec  (  0.1%)
DIIS solution               ....       0.011 sec  (  0.1%)
SOSCF solution              ....       0.078 sec  (  0.6%)
Grid generation             ....       2.058 sec  ( 15.2%)

Maximum memory used throughout the entire SCF-calculation: 67.8 MB

-------------------------   --------------------
FINAL SINGLE POINT ENERGY      -990.264053394609
-------------------------   --------------------

                                *** OPTIMIZATION RUN DONE ***

                            ***************************************
                            *     ORCA property calculations      *
                            ***************************************

                                    ---------------------
                                    Active property flags
                                    ---------------------
   (+) Dipole Moment


------------------------------------------------------------------------------
                       ORCA ELECTRIC PROPERTIES CALCULATION
------------------------------------------------------------------------------

Dipole Moment Calculation                       ... on
Quadrupole Moment Calculation                   ... off
Polarizability Calculation                      ... off
GBWName                                         ... structure_opt.gbw
Electron density                                ... structure_opt.scfp
The origin for moment calculation is the CENTER OF MASS  = (-0.613126, -1.788208  0.499613)

-------------
DIPOLE MOMENT
-------------
                                X             Y             Z
Electronic contribution:     -7.95686      14.93492      22.44428
Nuclear contribution   :      6.40251      -9.88211      -8.77436
                        -----------------------------------------
Total Dipole Moment    :     -1.55435       5.05281      13.66992
                        -----------------------------------------
Magnitude (a.u.)       :     14.65652
Magnitude (Debye)      :     37.25392



--------------------
Rotational spectrum 
--------------------
 
Rotational constants in cm-1:     0.039534     0.004579     0.004175 
Rotational constants in MHz :  1185.191524   137.262090   125.175950 

 Dipole components along the rotational axes: 
x,y,z [a.u.] :    14.474132    -2.160962     0.802139 
x,y,z [Debye]:    36.790319    -5.492729     2.038874 

 

Timings for individual modules:

Sum of individual times         ...     1133.517 sec (=  18.892 min)
GTO integral calculation        ...       67.199 sec (=   1.120 min)   5.9 %
SCF iterations                  ...      872.524 sec (=  14.542 min)  77.0 %
SCF Gradient evaluation         ...      192.525 sec (=   3.209 min)  17.0 %
Geometry relaxation             ...        1.270 sec (=   0.021 min)   0.1 %
                             ****ORCA TERMINATED NORMALLY****
TOTAL RUN TIME: 0 days 0 hours 20 minutes 8 seconds 884 msec
