
                                 *****************
                                 * O   R   C   A *
                                 *****************

                                            #,                                       
                                            ###                                      
                                            ####                                     
                                            #####                                    
                                            ######                                   
                                           ########,                                 
                                     ,,################,,,,,                         
                               ,,#################################,,                 
                          ,,##########################################,,             
                       ,#########################################, ''#####,          
                    ,#############################################,,   '####,        
                  ,##################################################,,,,####,       
                ,###########''''           ''''###############################       
              ,#####''   ,,,,##########,,,,          '''####'''          '####       
            ,##' ,,,,###########################,,,                        '##       
           ' ,,###''''                  '''############,,,                           
         ,,##''                                '''############,,,,        ,,,,,,###''
      ,#''                                            '''#######################'''  
     '                                                          ''''####''''         
             ,#######,   #######,   ,#######,      ##                                
            ,#'     '#,  ##    ##  ,#'     '#,    #''#        ######   ,####,        
            ##       ##  ##   ,#'  ##            #'  '#       #        #'  '#        
            ##       ##  #######   ##           ,######,      #####,   #    #        
            '#,     ,#'  ##    ##  '#,     ,#' ,#      #,         ##   #,  ,#        
             '#######'   ##     ##  '#######'  #'      '#     #####' # '####'        



                  #######################################################
                  #                        -***-                        #
                  #          Department of theory and spectroscopy      #
                  #    Directorship and core code : Frank Neese         #
                  #        Max Planck Institute fuer Kohlenforschung    #
                  #                Kaiser Wilhelm Platz 1               #
                  #                 D-45470 Muelheim/Ruhr               #
                  #                      Germany                        #
                  #                                                     #
                  #                  All rights reserved                #
                  #                        -***-                        #
                  #######################################################


                         Program Version 5.0.4 -  RELEASE  -


 With contributions from (in alphabetic order):
   Daniel Aravena         : Magnetic Suceptibility
   Michael Atanasov       : Ab Initio Ligand Field Theory (pilot matlab implementation)
   Alexander A. Auer      : GIAO ZORA, VPT2 properties, NMR spectrum
   Ute Becker             : Parallelization
   Giovanni Bistoni       : ED, misc. LED, open-shell LED, HFLD
   Martin Brehm           : Molecular dynamics
   Dmytro Bykov           : SCF Hessian
   Vijay G. Chilkuri      : MRCI spin determinant printing, contributions to CSF-ICE
   Dipayan Datta          : RHF DLPNO-CCSD density
   Achintya Kumar Dutta   : EOM-CC, STEOM-CC
   Dmitry Ganyushin       : Spin-Orbit,Spin-Spin,Magnetic field MRCI
   Miquel Garcia          : C-PCM and meta-GGA Hessian, CC/C-PCM, Gaussian charge scheme
   Yang Guo               : DLPNO-NEVPT2, F12-NEVPT2, CIM, IAO-localization
   Andreas Hansen         : Spin unrestricted coupled pair/coupled cluster methods
   Benjamin Helmich-Paris : MC-RPA, TRAH-SCF, COSX integrals
   Lee Huntington         : MR-EOM, pCC
   Robert Izsak           : Overlap fitted RIJCOSX, COSX-SCS-MP3, EOM
   Marcus Kettner         : VPT2
   Christian Kollmar      : KDIIS, OOCD, Brueckner-CCSD(T), CCSD density, CASPT2, CASPT2-K
   Simone Kossmann        : Meta GGA functionals, TD-DFT gradient, OOMP2, MP2 Hessian
   Martin Krupicka        : Initial AUTO-CI
   Lucas Lang             : DCDCAS
   Marvin Lechner         : AUTO-CI (C++ implementation), FIC-MRCC
   Dagmar Lenk            : GEPOL surface, SMD
   Dimitrios Liakos       : Extrapolation schemes; Compound Job, initial MDCI parallelization
   Dimitrios Manganas     : Further ROCIS development; embedding schemes
   Dimitrios Pantazis     : SARC Basis sets
   Anastasios Papadopoulos: AUTO-CI, single reference methods and gradients
   Taras Petrenko         : DFT Hessian,TD-DFT gradient, ASA, ECA, R-Raman, ABS, FL, XAS/XES, NRVS
   Peter Pinski           : DLPNO-MP2, DLPNO-MP2 Gradient
   Christoph Reimann      : Effective Core Potentials
   Marius Retegan         : Local ZFS, SOC
   Christoph Riplinger    : Optimizer, TS searches, QM/MM, DLPNO-CCSD(T), (RO)-DLPNO pert. Triples
   Tobias Risthaus        : Range-separated hybrids, TD-DFT gradient, RPA, STAB
   Michael Roemelt        : Original ROCIS implementation
   Masaaki Saitow         : Open-shell DLPNO-CCSD energy and density
   Barbara Sandhoefer     : DKH picture change effects
   Avijit Sen             : IP-ROCIS
   Kantharuban Sivalingam : CASSCF convergence, NEVPT2, FIC-MRCI
   Bernardo de Souza      : ESD, SOC TD-DFT
   Georgi Stoychev        : AutoAux, RI-MP2 NMR, DLPNO-MP2 response
   Willem Van den Heuvel  : Paramagnetic NMR
   Boris Wezisla          : Elementary symmetry handling
   Frank Wennmohs         : Technical directorship


 We gratefully acknowledge several colleagues who have allowed us to
 interface, adapt or use parts of their codes:
   Stefan Grimme, W. Hujo, H. Kruse, P. Pracht,  : VdW corrections, initial TS optimization,
                  C. Bannwarth, S. Ehlert          DFT functionals, gCP, sTDA/sTD-DF
   Ed Valeev, F. Pavosevic, A. Kumar             : LibInt (2-el integral package), F12 methods
   Garnet Chan, S. Sharma, J. Yang, R. Olivares  : DMRG
   Ulf Ekstrom                                   : XCFun DFT Library
   Mihaly Kallay                                 : mrcc  (arbitrary order and MRCC methods)
   Jiri Pittner, Ondrej Demel                    : Mk-CCSD
   Frank Weinhold                                : gennbo (NPA and NBO analysis)
   Christopher J. Cramer and Donald G. Truhlar   : smd solvation model
   Lars Goerigk                                  : TD-DFT with DH, B97 family of functionals
   V. Asgeirsson, H. Jonsson                     : NEB implementation
   FAccTs GmbH                                   : IRC, NEB, NEB-TS, DLPNO-Multilevel, CI-OPT
                                                   MM, QMMM, 2- and 3-layer-ONIOM, Crystal-QMMM,
                                                   LR-CPCM, SF, NACMEs, symmetry and pop. for TD-DFT,
                                                   nearIR, NL-DFT gradient (VV10), updates on ESD,
                                                   ML-optimized integration grids
   S Lehtola, MJT Oliveira, MAL Marques          : LibXC Library
   Liviu Ungur et al                             : ANISO software


 Your calculation uses the libint2 library for the computation of 2-el integrals
 For citations please refer to: http://libint.valeyev.net

 Your ORCA version has been built with support for libXC version: 5.1.0
 For citations please refer to: https://tddft.org/programs/libxc/

 This ORCA versions uses:
   CBLAS   interface :  Fast vector & matrix operations
   LAPACKE interface :  Fast linear algebra routines
   SCALAPACK package :  Parallel linear algebra routines
   Shared memory     :  Shared parallel matrices
   BLAS/LAPACK       :  OpenBLAS 0.3.15  USE64BITINT DYNAMIC_ARCH NO_AFFINITY SkylakeX SINGLE_THREADED
        Core in use  :  SkylakeX
   Copyright (c) 2011-2014, The OpenBLAS Project




***************************************
The coordinates will be read from file: reactants.xyz
***************************************


Your calculation utilizes the SMD solvation module
Please cite in your paper:
A.V. Marenich, C.J. Cramer, D.G. Truhlar J. Phys. Chem. B, 113, (2009), 6378 

XCFun DFT library Copyright 2009-2010 Ulf Ekstrom and contributors.
See http://admol.org/xcfun for more information.
This is free software; see the source code for copying conditions.
There is ABSOLUTELY NO WARRANTY; not even for MERCHANTABILITY or FITNESS FOR A PARTICULAR PURPOSE.
For details see the documentation.
Scientific users of this library should cite U. Ekstrom, L. Visscher, R. Bast, A. J. Thorvaldsen and K. Ruud;
J.Chem.Theor.Comp. 2010, DOI: 10.1021/ct100117s
XCFun Version 0.99 

================================================================================

----- Orbital basis set information -----
Your calculation utilizes the basis: 6-311++G**
   H, Li - Ne  : R. Krishnan, J. S. Binkley, R. Seeger and J. A. Pople, J. Chem. Phys. 72, 650 (1980).
   Na - Ar     : A. D. McLean and G. S. Chandler J. Chem. Phys. 72, 5639, (1980).
   K  - Ca     : J.-P. Blaudeau, M. P. McGrath, L. A. Curtiss and L. Radom, J. Chem. Phys. 107, 5016 (1997).
   Ga - Kr     : L. A. Curtiss, M. P. McGrath, J.-P. Blandeau, N. E. Davis, R. C. Binning and L. Radom, J. Chem. Phys. 103, 6104 (1995).
   Pol./Diff.
   H, Li - Cl  : T. Clark, J. Chandrasekhar and P. v. R. Schleyer, J. Comp. Chem. 4, 294 (1983).
   H - Ne      : M. J. Frisch, J. A. Pople and J. S. Binkley, J. Chem. Phys. 80, 3265 (1984).

----- AuxJ basis set information -----
Your calculation utilizes the auxiliary basis: def2/J
   F. Weigend, Phys. Chem. Chem. Phys. 8, 1057 (2006).

================================================================================
                                        WARNINGS
                       Please study these warnings very carefully!
================================================================================


WARNING: Geometry Optimization
  ===> : Switching off AutoStart
         For restart on a previous wavefunction, please use MOREAD

INFO   : the flag for use of the SHARK integral package has been found!

================================================================================
                                       INPUT FILE
================================================================================
NAME = structure_opt.inp
|  1> !wb97x 6-311++G** OPT CPCM(WATER)
|  2> %maxcore  3500
|  3> %pal
|  4> nprocs 24
|  5> end
|  6> %cpcm
|  7> smd true
|  8> SMDsolvent "water"
|  9> end
| 10> %geom
| 11> ConstrainFragments {1} end
| 12> ConstrainFragments {4} end
| 13> ConnectFragments
| 14> { 1 2 C 5 7 }
| 15> { 1 2 C 0 9 }
| 16> { 2 3 C 13 5 }
| 17> { 3 4 C 13 17 }
| 18> end
| 19> end
| 20> * XYZfile -1 1 reactants.xyz
| 21> %geom
| 22> Fragments
| 23> 1 {0:5} end
| 24> 2 {6:12} end
| 25> 3 {13:16} end
| 26> 4 {17} end
| 27> end
| 28> end
| 29> 
| 30>                          ****END OF INPUT****
================================================================================

                       *****************************
                       * Geometry Optimization Run *
                       *****************************

Geometry optimization settings:
Update method            Update   .... BFGS
Choice of coordinates    CoordSys .... Z-matrix Internals
Initial Hessian          InHess   .... Almoef's Model

Convergence Tolerances:
Energy Change            TolE     ....  5.0000e-06 Eh
Max. Gradient            TolMAXG  ....  3.0000e-04 Eh/bohr
RMS Gradient             TolRMSG  ....  1.0000e-04 Eh/bohr
Max. Displacement        TolMAXD  ....  4.0000e-03 bohr
RMS Displacement         TolRMSD  ....  2.0000e-03 bohr
Strict Convergence                ....  False
------------------------------------------------------------------------------
                        ORCA OPTIMIZATION COORDINATE SETUP
------------------------------------------------------------------------------

The optimization will be done in new redundant internal coordinates
Making redundant internal coordinates   ...  (new redundants) done
Evaluating the initial hessian          ...  (Almloef) done
Evaluating the coordinates              ...  done
Calculating the B-matrix                .... done
Calculating the G-matrix                .... done
Diagonalizing the G-matrix              .... done
Imposing constraints:
 Iter   0:  RMS(Cart)=    0.0000000000 RMS(Int)=    0.0000000000
CONVERGED
Small eigenvalue found = 1.156e-02
Small eigenvalue found = 2.062e-02
The first mode is                       ....   66
The number of degrees of freedom        ....   48
Storing new coordinates                 .... done

    -----------------------------------------------------------------
                    Redundant Internal Coordinates


    -----------------------------------------------------------------
         Definition                    Initial Value    Approx d2E/dq
    -----------------------------------------------------------------
      1. B(N   1,C   0)                  1.3611         0.622347   
      2. B(C   2,N   1)                  1.3582         0.628875   
      3. B(C   3,C   2)                  1.3949         0.613658   
      4. B(C   4,C   3)                  1.3934         0.616971   
      5. B(C   5,C   0)                  1.4122         0.575774   
      6. B(C   5,C   4)                  1.4061         0.588917   
      7. B(O   7,C   5)                  2.3435         0.016853 C 
      8. B(O   7,N   6)                  1.2480         0.844503   
      9. B(O   8,N   6)                  1.3769         0.525866   
     10. B(F   9,C   0)                  1.3500         0.602260 C 
     11. B(F   9,N   6)                  2.8678         0.002044   
     12. B(F   9,O   7)                  2.5821         0.005837   
     13. B(H  11,H  10)                  2.4818         0.000415   
     14. B(H  12,O   8)                  2.5152         0.001717   
     15. B(H  12,H  11)                  2.4663         0.000439   
     16. B(H  12,N   6)                  2.7029         0.000861   
     17. B(C  13,O   8)                  5.8598         0.000000 C 
     18. B(H  14,C  13)                  1.0934         0.355675   
     19. B(H  15,C  13)                  1.0932         0.355944   
     20. B(H  16,C  13)                  1.0941         0.354763   
     21. B(S  17,C  13)                  1.8030         0.369480 C 
     22. A(N   1,C   0,C   5)          120.1571         0.425830   
     23. A(N   1,C   0,F   9)          118.6704         0.424592 C 
     24. A(C   5,C   0,F   9)          121.1725         0.421471 C 
     25. A(C   0,N   1,C   2)          121.9524         0.429796   
     26. A(N   1,C   2,C   3)          120.0262         0.431531   
     27. A(C   2,C   3,C   4)          119.3498         0.432882   
     28. A(C   3,C   4,C   5)          120.4718         0.429694   
     29. A(C   0,C   5,O   7)           94.5313         0.237820 C 
     30. A(C   0,C   5,C   4)          118.0425         0.424407   
     31. A(C   4,C   5,O   7)          147.4261         0.238582 C 
     32. A(F   9,N   6,H  12)          110.0144         0.106848   
     33. A(O   8,N   6,H  12)           67.2752         0.152046   
     34. A(O   7,N   6,H  12)          174.2234         0.159181   
     35. A(O   7,N   6,O   8)          118.5014         0.433822   
     36. A(O   7,N   6,F   9)           64.2090         0.186619   
     37. A(N   6,O   7,F   9)           89.9947         0.212791   
     38. A(C   5,O   7,N   6)           31.7456         0.248611 C 
     39. A(C   5,O   7,F   9)           58.2491         0.140475 C 
     40. A(N   6,O   8,H  12)           82.3972         0.162696   
     41. A(H  12,O   8,C  13)          153.7047         0.090833 C 
     42. A(N   6,O   8,C  13)          118.9106         0.096704 C 
     43. A(C   0,F   9,O   7)           86.0471         0.203997 C 
     44. A(N   6,F   9,O   7)           25.7962         0.120482   
     45. A(C   0,F   9,N   6)           60.2509         0.179684 C 
     46. A(H  10,H  11,H  12)          119.7063         0.095112   
     47. A(N   6,H  12,O   8)           30.3275         0.103999   
     48. A(N   6,H  12,H  11)          126.7169         0.097913   
     49. A(O   8,H  12,H  11)          157.0445         0.099419   
     50. A(H  14,C  13,H  15)          109.0544         0.289747   
     51. A(H  14,C  13,H  16)          108.9252         0.289596   
     52. A(H  15,C  13,H  16)          109.0608         0.289631   
     53. A(O   8,C  13,H  14)          137.0287         0.095201 C 
     54. A(O   8,C  13,S  17)           27.4311         0.096740   
     55. A(O   8,C  13,H  15)           92.0737         0.095202 C 
     56. A(O   8,C  13,H  16)           98.0410         0.095198 C 
     57. A(H  14,C  13,S  17)          109.9469         0.339509 C 
     58. A(H  15,C  13,S  17)          109.9508         0.339552 C 
     59. A(H  16,C  13,S  17)          109.8779         0.339364 C 
     60. D(C   2,N   1,C   0,C   5)     -0.1041         0.028432   
     61. D(C   2,N   1,C   0,F   9)    179.9112         0.028432 C 
     62. D(C   3,C   2,N   1,C   0)      0.1066         0.025783   
     63. D(C   4,C   3,C   2,N   1)     -0.0956         0.020965   
     64. D(C   5,C   4,C   3,C   2)      0.0854         0.021202   
     65. D(O   7,C   5,C   0,F   9)     -0.0223         0.022761 C 
     66. D(O   7,C   5,C   4,C   3)   -179.9036         0.021656 C 
     67. D(O   7,C   5,C   0,N   1)    179.9933         0.022761 C 
     68. D(C   4,C   5,C   0,N   1)      0.0896         0.022761   
     69. D(C   0,C   5,C   4,C   3)     -0.0818         0.021656   
     70. D(C   4,C   5,C   0,F   9)   -179.9260         0.022761 C 
     71. D(N   6,O   7,C   5,C   4)     -0.1099         0.001517 C 
     72. D(N   6,O   7,C   5,C   0)   -179.9521         0.001517 C 
     73. D(F   9,O   7,C   5,C   4)    179.8539         0.001517 C 
     74. D(F   9,O   7,C   5,C   0)      0.0117         0.001517 C 
     75. D(F   9,O   7,N   6,O   8)    179.9932         0.079747   
     76. D(F   9,O   7,N   6,H  12)      0.1568         0.079747   
     77. D(C   5,O   7,N   6,O   8)   -179.9761         0.079747 C 
     78. D(C   5,O   7,N   6,H  12)      0.1876         0.079747 C 
     79. D(C   5,O   7,N   6,F   9)      0.0308         0.079747 C 
     80. D(C  13,O   8,N   6,O   7)     16.3750         0.027866 C 
     81. D(C  13,O   8,N   6,H  12)   -163.6429         0.027866 C 
     82. D(H  12,O   8,N   6,O   7)   -179.9821         0.027866   
     83. D(N   6,F   9,O   7,C   5)     -0.0190         0.001503 C 
     84. D(N   6,F   9,C   0,N   1)   -179.9918         0.032536 C 
     85. D(N   6,F   9,C   0,C   5)      0.0236         0.032536 C 
     86. D(O   7,F   9,N   6,H  12)   -179.9832         0.001500   
     87. D(C   0,F   9,N   6,O   7)   -179.9922         0.001500 C 
     88. D(C   0,F   9,N   6,H  12)      0.0246         0.001500 C 
     89. D(O   7,F   9,C   0,C   5)      0.0202         0.032536 C 
     90. D(O   7,F   9,C   0,N   1)   -179.9952         0.032536 C 
     91. D(C   0,F   9,O   7,N   6)      0.0068         0.001503 C 
     92. D(C   0,F   9,O   7,C   5)     -0.0123         0.001503 C 
     93. D(O   7,F   9,O   8,H  12)   -179.9897         0.001500   
     94. D(O   7,F   9,O   8,C  13)     16.6638         0.001500 C 
     95. D(C   0,F   9,O   8,H  12)      0.0232         0.001500 C 
     96. D(C   0,F   9,O   8,C  13)   -163.3233         0.001500   
     97. D(O   8,H  12,H  11,H  10)      0.0710         0.001502   
     98. D(O   8,H  12,N   6,F   9)    179.9943         0.001501   
     99. D(H  11,H  12,N   6,O   7)     -0.1748         0.001501   
    100. D(H  11,H  12,N   6,O   8)    179.9811         0.001501   
    101. D(H  11,H  12,N   6,F   9)     -0.0245         0.001501   
    102. D(N   6,H  12,O   8,C  13)    146.1863         0.001502 C 
    103. D(H  11,H  12,O   8,N   6)     -0.0388         0.001502   
    104. D(H  11,H  12,O   8,C  13)    146.1475         0.001502 C 
    105. D(O   8,H  12,N   6,O   7)    179.8441         0.001501   
    106. D(N   6,H  12,H  11,H  10)      0.0466         0.001502   
    107. D(S  17,C  13,O   8,H  12)   -141.9846         0.001500   
    108. D(H  14,C  13,O   8,H  12)   -152.9527         0.001500 C 
    109. D(H  15,C  13,O   8,N   6)   -133.2193         0.001500 C 
    110. D(H  15,C  13,O   8,H  12)     85.8405         0.001500 C 
    111. D(H  16,C  13,O   8,N   6)    117.1993         0.001500 C 
    112. D(H  16,C  13,O   8,H  12)    -23.7408         0.001500 C 
    113. D(H  14,C  13,O   8,N   6)    -12.0125         0.001500 C 
    114. D(S  17,C  13,O   8,N   6)     -1.0445         0.001500   
    -----------------------------------------------------------------

Number of atoms                         .... 18
Number of degrees of freedom            .... 114

         *************************************************************
         *                GEOMETRY OPTIMIZATION CYCLE   1            *
         *************************************************************
---------------------------------
CARTESIAN COORDINATES (ANGSTROEM)
---------------------------------
  C      0.000000    0.000000    1.820000
  N      1.178000   -0.196000    2.473000
  C      1.255000   -0.207000    3.829000
  C      0.105000   -0.016000    4.595000
  C     -1.116000    0.187000    3.955000
  C     -1.192000    0.198000    2.551000
  N     -2.456000    0.409000    1.893000
  O     -2.541000    0.423000    0.648000
  O     -3.602000    0.600000    2.632000
  F      0.000000    0.000000    0.470000
  H      2.209000   -0.366000    4.313000
  H      0.163000   -0.026000    5.676000
  H     -2.005000    0.335000    4.557000
  C     -8.803000    0.000000    0.000000
  H     -9.176000   -0.088000   -1.024000
  H     -9.176000    0.930000    0.437000
  H     -9.175000   -0.845000    0.587000
  S     -7.000000    0.000000    0.000000

----------------------------
CARTESIAN COORDINATES (A.U.)
----------------------------
  NO LB      ZA    FRAG     MASS         X           Y           Z
   0 C     6.0000    1    12.011    0.000000    0.000000    3.439302
   1 N     7.0000    1    14.007    2.226097   -0.370386    4.673293
   2 C     6.0000    1    12.011    2.371606   -0.391173    7.235761
   3 C     6.0000    1    12.011    0.198421   -0.030236    8.683292
   4 C     6.0000    1    12.011   -2.108934    0.353379    7.473867
   5 C     6.0000    1    12.011   -2.252554    0.374166    4.820691
   6 N     7.0000    2    14.007   -4.641167    0.772898    3.577252
   7 O     8.0000    2    15.999   -4.801794    0.799354    1.224543
   8 O     8.0000    2    15.999   -6.806794    1.133836    4.973759
   9 F     9.0000    2    18.998    0.000000    0.000000    0.888171
  10 H     1.0000    2     1.008    4.174405   -0.691640    8.150389
  11 H     1.0000    2     1.008    0.308025   -0.049133   10.726086
  12 H     1.0000    2     1.008   -3.788901    0.633058    8.611482
  13 C     6.0000    3    12.011  -16.635259    0.000000    0.000000
  14 H     1.0000    3     1.008  -17.340127   -0.166296   -1.935080
  15 H     1.0000    3     1.008  -17.340127    1.757445    0.825810
  16 H     1.0000    3     1.008  -17.338237   -1.596819    1.109269
  17 S    16.0000    4    32.060  -13.228083    0.000000    0.000000

----------------------------------------------
CARTESIAN COORDINATES OF FRAGMENTS (ANGSTROEM)
----------------------------------------------

 FRAGMENT 1 
  C     0.000000    0.000000    1.820000
  N     1.178000   -0.196000    2.473000
  C     1.255000   -0.207000    3.829000
  C     0.105000   -0.016000    4.595000
  C    -1.116000    0.187000    3.955000
  C    -1.192000    0.198000    2.551000

 FRAGMENT 2 
  N    -2.456000    0.409000    1.893000
  O    -2.541000    0.423000    0.648000
  O    -3.602000    0.600000    2.632000
  F     0.000000    0.000000    0.470000
  H     2.209000   -0.366000    4.313000
  H     0.163000   -0.026000    5.676000
  H    -2.005000    0.335000    4.557000

 FRAGMENT 3 
  C    -8.803000    0.000000    0.000000
  H    -9.176000   -0.088000   -1.024000
  H    -9.176000    0.930000    0.437000
  H    -9.175000   -0.845000    0.587000

 FRAGMENT 4 
  S    -7.000000    0.000000    0.000000

--------------------------------
INTERNAL COORDINATES (ANGSTROEM)
--------------------------------
 C      0   0   0     0.000000000000     0.00000000     0.00000000
 N      1   0   0     1.361069065110     0.00000000     0.00000000
 C      2   1   0     1.358228993948   121.95243626     0.00000000
 C      3   2   1     1.394896770374   120.02620694     0.10655554
 C      4   3   2     1.393431017309   119.34983770   359.90435571
 C      5   4   3     1.406098502951   120.47178172     0.08537773
 N      6   5   4     1.440548853736   120.30882193   180.03842131
 O      7   6   5     1.247976762604   121.13704526   179.93147861
 O      7   6   5     1.376923382037   120.36156660   359.90709941
 F      1   2   3     1.350000000000   118.67037638   179.91115691
 H      3   2   1     1.081504969938   119.86701156   179.98746005
 H      4   3   2     1.082601034546   120.19197482   179.89186186
 H      5   4   3     1.083803026384   118.91636700   180.02085854
 C      9   7   6     5.859848547531   118.91057676   196.39869483
 H     14   9   7     1.093365903986   137.02869941   347.98746951
 H     14   9   7     1.093159640675    92.07367308   226.78070069
 H     14   9   7     1.094064897527    98.04098982   117.19934257
 S     14   9   7     1.803000000000    27.43108231   358.95552470

---------------------------
INTERNAL COORDINATES (A.U.)
---------------------------
 C      0   0   0     0.000000000000     0.00000000     0.00000000
 N      1   0   0     2.572047782411     0.00000000     0.00000000
 C      2   1   0     2.566680825712   121.95243626     0.00000000
 C      3   2   1     2.635972881098   120.02620694     0.10655554
 C      4   3   2     2.633203009226   119.34983770   359.90435571
 C      5   4   3     2.657141087893   120.47178172     0.08537773
 N      6   5   4     2.722242816095   120.30882193   180.03842131
 O      7   6   5     2.358334302820   121.13704526   179.93147861
 O      7   6   5     2.602008099442   120.36156660   359.90709941
 F      1   2   3     2.551130280794   118.67037638   179.91115691
 H      3   2   1     2.043748205657   119.86701156   179.98746005
 H      4   3   2     2.045819467592   120.19197482   179.89186186
 H      5   4   3     2.048090902982   118.91636700   180.02085854
 C      9   7   6    11.073508941090   118.91057676   196.39869483
 H     14   9   7     2.066162122702   137.02869941   347.98746951
 H     14   9   7     2.065772341531    92.07367308   226.78070069
 H     14   9   7     2.067483029062    98.04098982   117.19934257
 S     14   9   7     3.407176219460    27.43108231   358.95552470

---------------------
BASIS SET INFORMATION
---------------------
There are 6 groups of distinct atoms

 Group   1 Type C   : 12s6p1d contracted to 5s4p1d pattern {63111/3111/1}
 Group   2 Type N   : 12s6p1d contracted to 5s4p1d pattern {63111/3111/1}
 Group   3 Type O   : 12s6p1d contracted to 5s4p1d pattern {63111/3111/1}
 Group   4 Type F   : 12s6p1d contracted to 5s4p1d pattern {63111/3111/1}
 Group   5 Type H   : 6s1p contracted to 4s1p pattern {3111/1}
 Group   6 Type S   : 14s10p1d contracted to 7s6p1d pattern {6311111/421111/1}

Atom   0C    basis set group =>   1
Atom   1N    basis set group =>   2
Atom   2C    basis set group =>   1
Atom   3C    basis set group =>   1
Atom   4C    basis set group =>   1
Atom   5C    basis set group =>   1
Atom   6N    basis set group =>   2
Atom   7O    basis set group =>   3
Atom   8O    basis set group =>   3
Atom   9F    basis set group =>   4
Atom  10H    basis set group =>   5
Atom  11H    basis set group =>   5
Atom  12H    basis set group =>   5
Atom  13C    basis set group =>   1
Atom  14H    basis set group =>   5
Atom  15H    basis set group =>   5
Atom  16H    basis set group =>   5
Atom  17S    basis set group =>   6
---------------------------------
AUXILIARY/J BASIS SET INFORMATION
---------------------------------
There are 6 groups of distinct atoms

 Group   1 Type C   : 12s5p4d2f1g contracted to 6s4p3d1f1g pattern {711111/2111/211/2/1}
 Group   2 Type N   : 12s5p4d2f1g contracted to 6s4p3d1f1g pattern {711111/2111/211/2/1}
 Group   3 Type O   : 12s5p4d2f1g contracted to 6s4p3d1f1g pattern {711111/2111/211/2/1}
 Group   4 Type F   : 12s5p4d2f1g contracted to 6s4p3d1f1g pattern {711111/2111/211/2/1}
 Group   5 Type H   : 5s2p1d contracted to 3s1p1d pattern {311/2/1}
 Group   6 Type S   : 14s5p5d2f1g contracted to 8s4p3d1f1g pattern {71111111/2111/311/2/1}

Atom   0C    basis set group =>   1
Atom   1N    basis set group =>   2
Atom   2C    basis set group =>   1
Atom   3C    basis set group =>   1
Atom   4C    basis set group =>   1
Atom   5C    basis set group =>   1
Atom   6N    basis set group =>   2
Atom   7O    basis set group =>   3
Atom   8O    basis set group =>   3
Atom   9F    basis set group =>   4
Atom  10H    basis set group =>   5
Atom  11H    basis set group =>   5
Atom  12H    basis set group =>   5
Atom  13C    basis set group =>   1
Atom  14H    basis set group =>   5
Atom  15H    basis set group =>   5
Atom  16H    basis set group =>   5
Atom  17S    basis set group =>   6


           ************************************************************
           *        Program running with 24 parallel MPI-processes    *
           *              working on a common directory               *
           ************************************************************
------------------------------------------------------------------------------
                           ORCA GTO INTEGRAL CALCULATION
                           -- RI-GTO INTEGRALS CHOSEN --
------------------------------------------------------------------------------
------------------------------------------------------------------------------
                   ___                                                        
                  /   \      - P O W E R E D   B Y -                         
                 /     \                                                     
                 |  |  |   _    _      __       _____    __    __             
                 |  |  |  | |  | |    /  \     |  _  \  |  |  /  |          
                  \  \/   | |  | |   /    \    | | | |  |  | /  /          
                 / \  \   | |__| |  /  /\  \   | |_| |  |  |/  /          
                |  |  |   |  __  | /  /__\  \  |    /   |      \           
                |  |  |   | |  | | |   __   |  |    \   |  |\   \          
                \     /   | |  | | |  |  |  |  | |\  \  |  | \   \       
                 \___/    |_|  |_| |__|  |__|  |_| \__\ |__|  \__/        
                                                                              
                      - O R C A' S   B I G   F R I E N D -                    
                                      &                                       
                       - I N T E G R A L  F E E D E R -                       
                                                                              
 v1 FN, 2020, v2 2021                                                         
------------------------------------------------------------------------------


Reading SHARK input file structure_opt.SHARKINP.tmp ... ok
----------------------
SHARK INTEGRAL PACKAGE
----------------------

Number of atoms                             ...     18
Number of basis functions                   ...    314
Number of shells                            ...    154
Maximum angular momentum                    ...      2
Integral batch strategy                     ... SHARK/LIBINT Hybrid
RI-J (if used) integral strategy            ... SPLIT-RIJ (Revised 2003 algorithm where possible)
Printlevel                                  ...      1
Contraction scheme used                     ... SEGMENTED contraction
Coulomb Range Separation                    ... NOT USED
Exchange Range Separation                   ... Long Range
   Mu parameter                             ...  0.300000
   Scaling (regular/separated)              ...  0.157706  0.842294
Finite Nucleus Model                        ... NOT USED
Auxiliary Coulomb fitting basis             ... AVAILABLE
   # of basis functions in Aux-J            ...    656
   # of shells in Aux-J                     ...    212
   Maximum angular momentum in Aux-J        ...      4
Auxiliary J/K fitting basis                 ... NOT available
Auxiliary Correlation fitting basis         ... NOT available
Auxiliary 'external' fitting basis          ... NOT available
Integral threshold                          ...     2.500000e-11
Primitive cut-off                           ...     2.500000e-12
Primitive pair pre-selection threshold      ...     2.500000e-12

Calculating pre-screening integrals         ... done (  0.0 sec) Dimension = 154
Organizing shell pair data                  ... done (  0.1 sec)
Shell pair information
Total number of shell pairs                 ...     11935
Shell pairs after pre-screening             ...      8992
Total number of primitive shell pairs       ...     38500
Primitive shell pairs kept                  ...     20593
          la=0 lb=0:   2749 shell pairs
          la=1 lb=0:   3699 shell pairs
          la=1 lb=1:   1280 shell pairs
          la=2 lb=0:    716 shell pairs
          la=2 lb=1:    493 shell pairs
          la=2 lb=2:     55 shell pairs

Calculating one electron integrals          ... done (  0.0 sec)
Calculating RI/J V-Matrix + Cholesky decomp.... done (  0.1 sec)
Calculating Nuclear repulsion               ... done (  0.0 sec) ENN=    689.655773576804 Eh

SHARK setup successfully completed in   0.5 seconds

Maximum memory used throughout the entire GTOINT-calculation: 17.7 MB


           ************************************************************
           *        Program running with 24 parallel MPI-processes    *
           *              working on a common directory               *
           ************************************************************
-------------------------------------------------------------------------------
                                 ORCA SCF
-------------------------------------------------------------------------------

------------
SCF SETTINGS
------------
Hamiltonian:
 Density Functional     Method          .... DFT(GTOs)
 Exchange Functional    Exchange        .... WB97X
 Correlation Functional Correlation     .... WB97X
 Gradients option       PostSCFGGA      .... off
 Hybrid DFT is turned on
   Fraction HF Exchange ScalHFX         ....  0.157706
   Scaling of DF-GGA-X  ScalDFX         ....  0.000000
   Scaling of DF-GGA-C  ScalDFC         ....  1.000000
   Scaling of DF-LDA-C  ScalLDAC        ....  1.000000
   Perturbative correction              ....  0.000000
   Density functional embedding theory  .... OFF
 Long-range corrected/Screened/Range-Separated Hybrid DFT is turned on
   Amount of maximum screened exact exchange              ....  0.842294
   Range separation parameter mu (erf(mu*r12)/r12)        ....  0.300000
 RI-approximation to the Coulomb term is turned on
   Number of AuxJ basis functions       .... 656
   RIJ-COSX (HFX calculated with COS-X)).... on


General Settings:
 Integral files         IntName         .... structure_opt
 Hartree-Fock type      HFTyp           .... RHF
 Total Charge           Charge          ....   -1
 Multiplicity           Mult            ....    1
 Number of Electrons    NEL             ....   98
 Basis Dimension        Dim             ....  314
 Nuclear Repulsion      ENuc            ....    689.6557735768 Eh

Convergence Acceleration:
 DIIS                   CNVDIIS         .... on
   Start iteration      DIISMaxIt       ....    12
   Startup error        DIISStart       ....  0.200000
   # of expansion vecs  DIISMaxEq       ....     5
   Bias factor          DIISBfac        ....   1.050
   Max. coefficient     DIISMaxC        ....  10.000
 Trust-Rad. Augm. Hess. CNVTRAH         .... auto
   Auto Start mean grad. ratio tolernc. ....  1.125000
   Auto Start start iteration           ....    20
   Auto Start num. interpolation iter.  ....    10
   Max. Number of Micro iterations      ....    16
   Max. Number of Macro iterations      .... Maxiter - #DIIS iter
   Number of Davidson start vectors     ....     2
   Converg. threshold I  (grad. norm)   ....   1.000e-05
   Converg. threshold II (energy diff.) ....   1.000e-08
   Grad. Scal. Fac. for Micro threshold ....   0.100
   Minimum threshold for Micro iter.    ....   0.010
   NR start threshold (gradient norm)   ....   0.001
   Initial trust radius                 ....   0.400
   Minimum AH scaling param. (alpha)    ....   1.000
   Maximum AH scaling param. (alpha)    .... 1000.000
   Orbital update algorithm             .... Taylor
   White noise on init. David. guess    .... on
   Maximum white noise                  ....   0.010
   Quad. conv. algorithm                .... NR
 SOSCF                  CNVSOSCF        .... on
   Start iteration      SOSCFMaxIt      ....   150
   Startup grad/error   SOSCFStart      ....  0.003300
 Level Shifting         CNVShift        .... on
   Level shift para.    LevelShift      ....    0.2500
   Turn off err/grad.   ShiftErr        ....    0.0010
 Zerner damping         CNVZerner       .... off
 Static damping         CNVDamp         .... on
   Fraction old density DampFac         ....    0.7000
   Max. Damping (<1)    DampMax         ....    0.9800
   Min. Damping (>=0)   DampMin         ....    0.0000
   Turn off err/grad.   DampErr         ....    0.1000
 Fernandez-Rico         CNVRico         .... off

SCF Procedure:
 Maximum # iterations   MaxIter         ....   125
 SCF integral mode      SCFMode         .... Direct
   Integral package                     .... SHARK and LIBINT hybrid scheme
 Reset frequency        DirectResetFreq ....    20
 Integral Threshold     Thresh          ....  2.500e-11 Eh
 Primitive CutOff       TCut            ....  2.500e-12 Eh

Convergence Tolerance:
 Convergence Check Mode ConvCheckMode   .... Total+1el-Energy
 Convergence forced     ConvForced      .... 0
 Energy Change          TolE            ....  1.000e-08 Eh
 1-El. energy change                    ....  1.000e-05 Eh
 Orbital Gradient       TolG            ....  1.000e-05
 Orbital Rotation angle TolX            ....  1.000e-05
 DIIS Error             TolErr          ....  5.000e-07


Diagonalization of the overlap matrix:
Smallest eigenvalue                        ... 4.465e-06
Time for diagonalization                   ...    0.046 sec
Threshold for overlap eigenvalues          ... 1.000e-08
Number of eigenvalues below threshold      ... 0
Time for construction of square roots      ...    0.020 sec
Total time needed                          ...    0.069 sec

Time for model grid setup =    0.163 sec

------------------------------
INITIAL GUESS: MODEL POTENTIAL
------------------------------
Loading Hartree-Fock densities                     ... done
Calculating cut-offs                               ... done
Initializing the effective Hamiltonian             ... done
Setting up the integral package (SHARK)            ... done
Starting the Coulomb interaction                   ... done (   0.1 sec)
Reading the grid                                   ... done
Mapping shells                                     ... done
Starting the XC term evaluation                    ... done (   0.0 sec)
  promolecular density results
     # of electrons  =     96.995411973
     EX              =    -96.552630286
     EC              =     -3.327266951
     EX+EC           =    -99.879897237
Transforming the Hamiltonian                       ... done (   0.0 sec)
Diagonalizing the Hamiltonian                      ... done (   0.0 sec)
Back transforming the eigenvectors                 ... done (   0.0 sec)
Now organizing SCF variables                       ... done
                      ------------------
                      INITIAL GUESS DONE (   0.3 sec)
                      ------------------
-------------------
DFT GRID GENERATION
-------------------

General Integration Accuracy     IntAcc      ... 4.388
Radial Grid Type                 RadialGrid  ... OptM3 with GC (2021)
Angular Grid (max. ang.)         AngularGrid ... 4 (Lebedev-302)
Angular grid pruning method      GridPruning ... 4 (adaptive)
Weight generation scheme         WeightScheme... Becke
Basis function cutoff            BFCut       ... 1.0000e-11
Integration weight cutoff        WCut        ... 1.0000e-14
Angular grids for H and He will be reduced by one unit
Partially contracted basis set               ... off
Rotationally invariant grid construction     ... off

Total number of grid points                  ...    98084
Total number of batches                      ...     1542
Average number of points per batch           ...       63
Average number of grid points per atom       ...     5449
Time for grid setup =    0.565 sec

--------------------
COSX GRID GENERATION
--------------------

GRIDX 1
-------
General Integration Accuracy     IntAcc      ... 3.816
Radial Grid Type                 RadialGrid  ... OptM3 with GC (2021)
Angular Grid (max. ang.)         AngularGrid ... 1 (Lebedev-50)
Angular grid pruning method      GridPruning ... 4 (adaptive)
Weight generation scheme         WeightScheme... Becke
Basis function cutoff            BFCut       ... 1.0000e-11
Integration weight cutoff        WCut        ... 1.0000e-14
Angular grids for H and He will be reduced by one unit
Partially contracted basis set               ... on
Rotationally invariant grid construction     ... off

Total number of grid points                  ...    12257
Total number of batches                      ...      203
Average number of points per batch           ...       60
Average number of grid points per atom       ...      681
UseSFitting                                  ... on

GRIDX 2
-------
General Integration Accuracy     IntAcc      ... 4.020
Radial Grid Type                 RadialGrid  ... OptM3 with GC (2021)
Angular Grid (max. ang.)         AngularGrid ... 2 (Lebedev-110)
Angular grid pruning method      GridPruning ... 4 (adaptive)
Weight generation scheme         WeightScheme... Becke
Basis function cutoff            BFCut       ... 1.0000e-11
Integration weight cutoff        WCut        ... 1.0000e-14
Angular grids for H and He will be reduced by one unit
Partially contracted basis set               ... on
Rotationally invariant grid construction     ... off

Total number of grid points                  ...    31091
Total number of batches                      ...      493
Average number of points per batch           ...       63
Average number of grid points per atom       ...     1727
UseSFitting                                  ... on

GRIDX 3
-------
General Integration Accuracy     IntAcc      ... 4.338
Radial Grid Type                 RadialGrid  ... OptM3 with GC (2021)
Angular Grid (max. ang.)         AngularGrid ... 3 (Lebedev-194)
Angular grid pruning method      GridPruning ... 4 (adaptive)
Weight generation scheme         WeightScheme... Becke
Basis function cutoff            BFCut       ... 1.0000e-11
Integration weight cutoff        WCut        ... 1.0000e-14
Angular grids for H and He will be reduced by one unit
Partially contracted basis set               ... on
Rotationally invariant grid construction     ... off

Total number of grid points                  ...    69140
Total number of batches                      ...     1087
Average number of points per batch           ...       63
Average number of grid points per atom       ...     3841
UseSFitting                                  ... on

Time for X-Grid setup             =    1.148 sec


--------------------
CPCM SOLVATION MODEL
--------------------
CPCM parameters:
  Epsilon                                         ...      78.3550
  Refrac                                          ...       1.3328
  Rsolv                                           ...       1.3000
  Surface type                                    ... GAUSSIAN VDW
  Epsilon function type                           ...         CPCM
Solvent:                                     ... WATER
SMD-CDS solvent descriptors:
  Soln                                       ...    1.3328
  Soln25                                     ...    1.3323
  Sola                                       ...    0.0000
  Solb                                       ...    0.0000
  Solg                                       ...    0.0000
  Solc                                       ...    0.0000
  Solh                                       ...    0.0000
Radii:
 Radius for C  used is    3.4960 Bohr (=   1.8500 Ang.)
 Radius for N  used is    3.5716 Bohr (=   1.8900 Ang.)
 Radius for O  used is    2.8724 Bohr (=   1.5200 Ang.)
 Radius for F  used is    3.2692 Bohr (=   1.7300 Ang.)
 Radius for H  used is    2.2677 Bohr (=   1.2000 Ang.)
 Radius for S  used is    4.7054 Bohr (=   2.4900 Ang.)
Calculating surface                               ...        done! (  0.0s)
GEPOL surface points                              ...         1160
GEPOL Volume                                      ...    1369.6349
GEPOL Surface-area                                ...     849.3778
Calculating surface distance matrix               ...        done! (  0.0s)
Performing Cholesky decomposition & store         ...        done! (  0.2s)
Overall time for CPCM initialization              ...                 0.2s
--------------
SCF ITERATIONS
--------------
ITER       Energy         Delta-E        Max-DP      RMS-DP      [F,P]     Damp
               ***  Starting incremental Fock matrix formation  ***
  0   -989.8660960619   0.000000000000 0.31713557  0.00319705  0.2371741 0.7000
  1   -990.0283699197  -0.162273857801 0.21609001  0.00243783  0.1193207 0.7000
                               ***Turning on DIIS***
  2   -990.1008663531  -0.072496433416 1.47056431  0.00883211  0.0640161 0.0000
  3   -990.2250199651  -0.124153611969 0.72675601  0.00387579  0.0550078 0.0000
  4   -990.2441786067  -0.019158641575 0.23966447  0.00134109  0.0124757 0.0000
  5   -990.2453553188  -0.001176712163 0.12059358  0.00069610  0.0061825 0.0000
                      *** Initiating the SOSCF procedure ***
                           *** Shutting down DIIS ***
                      *** Re-Reading the Fockian *** 
                      *** Removing any level shift *** 
ITER      Energy       Delta-E        Grad      Rot      Max-DP    RMS-DP
  6   -990.24558680  -0.0002314791  0.001491  0.001491  0.030811  0.000222
               *** Restarting incremental Fock matrix formation ***
  7   -990.24567918  -0.0000923843  0.000977  0.002397  0.025906  0.000222
  8   -990.24571806  -0.0000388756  0.000367  0.002743  0.027562  0.000215
  9   -990.24572408  -0.0000060217  0.000681  0.000708  0.017093  0.000119
 10   -990.24573086  -0.0000067798  0.000109  0.000208  0.002114  0.000025
 11   -990.24573092  -0.0000000629  0.000092  0.000126  0.003633  0.000021
 12   -990.24573128  -0.0000003611  0.000015  0.000041  0.005907  0.000036
 13   -990.24573128  -0.0000000005  0.000006  0.000032  0.006785  0.000046
 14   -990.24573128  -0.0000000007  0.000005  0.000011  0.004364  0.000025
                  ***Gradient check signals convergence***
              ***Rediagonalizing the Fockian in SOSCF/NRSCF***

               *****************************************************
               *                     SUCCESS                       *
               *           SCF CONVERGED AFTER  15 CYCLES          *
               *****************************************************

Old exchange energy                            =    -28.432241837 Eh
New exchange energy                            =    -28.432256553 Eh
Exchange energy change after final integration =     -0.000014716 Eh
Total energy after final integration           =   -990.245746003 Eh
Final COS-X integration done in                =     3.578 sec

SMD CDS free energy correction energy :                 5.87356     Kcal/mol
Total Energy after SMD CDS correction =              -990.236385888 Eh

----------------
TOTAL SCF ENERGY
----------------

Total Energy       :         -990.23638589 Eh          -26945.70195 eV

Components:
Nuclear Repulsion  :          689.65577358 Eh           18766.48767 eV
Electronic Energy  :        -1679.89215947 Eh          -45712.18962 eV
One Electron Energy:        -2739.79534313 Eh          -74553.62152 eV
Two Electron Energy:         1059.90318366 Eh           28841.43190 eV
Max COSX asymmetry :            0.00000216 Eh               0.00006 eV
CPCM Dielectric    :           -0.15413518 Eh              -4.19423 eV
SMD CDS (Gcds)     :            0.00936012 Eh               0.25470 eV

Virial components:
Potential Energy   :        -1977.46488086 Eh          -53809.55503 eV
Kinetic Energy     :          987.22849498 Eh           26863.85308 eV
Virial Ratio       :            2.00304680


DFT components:
N(Alpha)           :       48.999989774040 electrons
N(Beta)            :       48.999989774040 electrons
N(Total)           :       97.999979548079 electrons
E(XC)              :      -73.338309005469 Eh       
DFET-embed. en.    :        0.000000000000 Eh       
CPCM Solvation Model Properties:
Surface-charge          :            0.94933285
Charge-correction       :           -0.00581465 Eh              -0.15822 eV
Free-energy (cav+disp)  :            0.00936012 Eh               0.25470 eV

---------------
SCF CONVERGENCE
---------------

  Last Energy change         ...   -3.1188e-09  Tolerance :   1.0000e-08
  Last MAX-Density change    ...    3.5527e-15  Tolerance :   1.0000e-07
  Last RMS-Density change    ...    4.0372e-17  Tolerance :   5.0000e-09
  Last Orbital Gradient      ...    2.0342e-06  Tolerance :   1.0000e-05
  Last Orbital Rotation      ...    1.4850e-06  Tolerance :   1.0000e-05

             **** THE GBW FILE WAS UPDATED (structure_opt.gbw) ****
             **** DENSITY structure_opt.scfp WAS UPDATED ****
             **** ENERGY FILE WAS UPDATED (structure_opt.en.tmp) ****
             **** THE GBW FILE WAS UPDATED (structure_opt.gbw) ****
             **** DENSITY structure_opt.scfp WAS UPDATED ****
----------------
ORBITAL ENERGIES
----------------

  NO   OCC          E(Eh)            E(eV) 
   0   2.0000     -88.720087     -2414.1963 
   1   2.0000     -24.793386      -674.6623 
   2   2.0000     -19.275670      -524.5176 
   3   2.0000     -19.244027      -523.6566 
   4   2.0000     -14.669686      -399.1825 
   5   2.0000     -14.435666      -392.8144 
   6   2.0000     -10.437753      -284.0257 
   7   2.0000     -10.364217      -282.0247 
   8   2.0000     -10.338299      -281.3194 
   9   2.0000     -10.321222      -280.8547 
  10   2.0000     -10.290587      -280.0211 
  11   2.0000     -10.235829      -278.5311 
  12   2.0000      -7.915915      -215.4030 
  13   2.0000      -5.879171      -159.9804 
  14   2.0000      -5.871647      -159.7756 
  15   2.0000      -5.871616      -159.7748 
  16   2.0000      -1.396417       -37.9984 
  17   2.0000      -1.348109       -36.6839 
  18   2.0000      -1.151386       -31.3308 
  19   2.0000      -1.109363       -30.1873 
  20   2.0000      -1.008411       -27.4403 
  21   2.0000      -0.943475       -25.6733 
  22   2.0000      -0.874021       -23.7833 
  23   2.0000      -0.836099       -22.7514 
  24   2.0000      -0.796717       -21.6798 
  25   2.0000      -0.769218       -20.9315 
  26   2.0000      -0.706007       -19.2114 
  27   2.0000      -0.686533       -18.6815 
  28   2.0000      -0.669382       -18.2148 
  29   2.0000      -0.664986       -18.0952 
  30   2.0000      -0.661622       -18.0036 
  31   2.0000      -0.633206       -17.2304 
  32   2.0000      -0.620395       -16.8818 
  33   2.0000      -0.615314       -16.7436 
  34   2.0000      -0.563865       -15.3435 
  35   2.0000      -0.537173       -14.6172 
  36   2.0000      -0.528028       -14.3684 
  37   2.0000      -0.528000       -14.3676 
  38   2.0000      -0.494427       -13.4541 
  39   2.0000      -0.494026       -13.4431 
  40   2.0000      -0.456273       -12.4158 
  41   2.0000      -0.432358       -11.7651 
  42   2.0000      -0.421559       -11.4712 
  43   2.0000      -0.416487       -11.3332 
  44   2.0000      -0.408201       -11.1077 
  45   2.0000      -0.390344       -10.6218 
  46   2.0000      -0.384998       -10.4763 
  47   2.0000      -0.258776        -7.0416 
  48   2.0000      -0.258696        -7.0395 
  49   0.0000      -0.064793        -1.7631 
  50   0.0000       0.022604         0.6151 
  51   0.0000       0.053306         1.4505 
  52   0.0000       0.055353         1.5062 
  53   0.0000       0.058138         1.5820 
  54   0.0000       0.068606         1.8669 
  55   0.0000       0.076776         2.0892 
  56   0.0000       0.088243         2.4012 
  57   0.0000       0.090721         2.4686 
  58   0.0000       0.097062         2.6412 
  59   0.0000       0.098756         2.6873 
  60   0.0000       0.114687         3.1208 
  61   0.0000       0.116746         3.1768 
  62   0.0000       0.127860         3.4792 
  63   0.0000       0.130621         3.5544 
  64   0.0000       0.132902         3.6165 
  65   0.0000       0.140935         3.8350 
  66   0.0000       0.152456         4.1485 
  67   0.0000       0.157510         4.2861 
  68   0.0000       0.161770         4.4020 
  69   0.0000       0.164457         4.4751 
  70   0.0000       0.171153         4.6573 
  71   0.0000       0.174312         4.7433 
  72   0.0000       0.175068         4.7638 
  73   0.0000       0.179627         4.8879 
  74   0.0000       0.184116         5.0101 
  75   0.0000       0.184410         5.0180 
  76   0.0000       0.191963         5.2236 
  77   0.0000       0.194149         5.2831 
  78   0.0000       0.198989         5.4148 
  79   0.0000       0.203306         5.5322 
  80   0.0000       0.208689         5.6787 
  81   0.0000       0.218406         5.9431 
  82   0.0000       0.230744         6.2789 
  83   0.0000       0.233888         6.3644 
  84   0.0000       0.237879         6.4730 
  85   0.0000       0.245668         6.6850 
  86   0.0000       0.250898         6.8273 
  87   0.0000       0.262141         7.1332 
  88   0.0000       0.265842         7.2339 
  89   0.0000       0.270245         7.3537 
  90   0.0000       0.277657         7.5554 
  91   0.0000       0.278192         7.5700 
  92   0.0000       0.281411         7.6576 
  93   0.0000       0.285902         7.7798 
  94   0.0000       0.294494         8.0136 
  95   0.0000       0.298992         8.1360 
  96   0.0000       0.301366         8.2006 
  97   0.0000       0.313736         8.5372 
  98   0.0000       0.316172         8.6035 
  99   0.0000       0.322012         8.7624 
 100   0.0000       0.333705         9.0806 
 101   0.0000       0.343294         9.3415 
 102   0.0000       0.349286         9.5046 
 103   0.0000       0.356241         9.6938 
 104   0.0000       0.360306         9.8044 
 105   0.0000       0.365211         9.9379 
 106   0.0000       0.372400        10.1335 
 107   0.0000       0.379980        10.3398 
 108   0.0000       0.399701        10.8764 
 109   0.0000       0.403398        10.9770 
 110   0.0000       0.408245        11.1089 
 111   0.0000       0.410931        11.1820 
 112   0.0000       0.419154        11.4058 
 113   0.0000       0.425019        11.5653 
 114   0.0000       0.436748        11.8845 
 115   0.0000       0.450839        12.2680 
 116   0.0000       0.458476        12.4758 
 117   0.0000       0.460867        12.5408 
 118   0.0000       0.475048        12.9267 
 119   0.0000       0.492494        13.4014 
 120   0.0000       0.498813        13.5734 
 121   0.0000       0.519179        14.1276 
 122   0.0000       0.527191        14.3456 
 123   0.0000       0.529066        14.3966 
 124   0.0000       0.537318        14.6212 
 125   0.0000       0.573788        15.6136 
 126   0.0000       0.598948        16.2982 
 127   0.0000       0.611100        16.6289 
 128   0.0000       0.619621        16.8608 
 129   0.0000       0.625677        17.0255 
 130   0.0000       0.640157        17.4196 
 131   0.0000       0.643703        17.5161 
 132   0.0000       0.652631        17.7590 
 133   0.0000       0.658856        17.9284 
 134   0.0000       0.668377        18.1875 
 135   0.0000       0.700679        19.0664 
 136   0.0000       0.703777        19.1507 
 137   0.0000       0.725427        19.7399 
 138   0.0000       0.745209        20.2782 
 139   0.0000       0.770893        20.9771 
 140   0.0000       0.771270        20.9873 
 141   0.0000       0.784885        21.3578 
 142   0.0000       0.811448        22.0806 
 143   0.0000       0.829309        22.5666 
 144   0.0000       0.836916        22.7736 
 145   0.0000       0.849753        23.1230 
 146   0.0000       0.857620        23.3370 
 147   0.0000       0.872752        23.7488 
 148   0.0000       0.903182        24.5768 
 149   0.0000       0.910851        24.7855 
 150   0.0000       0.921718        25.0812 
 151   0.0000       0.936136        25.4736 
 152   0.0000       0.954070        25.9616 
 153   0.0000       0.958201        26.0740 
 154   0.0000       0.964719        26.2513 
 155   0.0000       0.973032        26.4776 
 156   0.0000       0.976666        26.5764 
 157   0.0000       0.991067        26.9683 
 158   0.0000       1.001697        27.2576 
 159   0.0000       1.004442        27.3322 
 160   0.0000       1.011456        27.5231 
 161   0.0000       1.038857        28.2687 
 162   0.0000       1.048988        28.5444 
 163   0.0000       1.065982        29.0068 
 164   0.0000       1.077724        29.3264 
 165   0.0000       1.080527        29.4026 
 166   0.0000       1.084784        29.5185 
 167   0.0000       1.142857        31.0987 
 168   0.0000       1.151729        31.3401 
 169   0.0000       1.154448        31.4141 
 170   0.0000       1.177120        32.0311 
 171   0.0000       1.194739        32.5105 
 172   0.0000       1.201192        32.6861 
 173   0.0000       1.213703        33.0265 
 174   0.0000       1.256213        34.1833 
 175   0.0000       1.263467        34.3807 
 176   0.0000       1.276680        34.7402 
 177   0.0000       1.279304        34.8116 
 178   0.0000       1.285684        34.9852 
 179   0.0000       1.299505        35.3613 
 180   0.0000       1.322578        35.9892 
 181   0.0000       1.364446        37.1285 
 182   0.0000       1.393795        37.9271 
 183   0.0000       1.407291        38.2943 
 184   0.0000       1.471670        40.0462 
 185   0.0000       1.506588        40.9963 
 186   0.0000       1.545136        42.0453 
 187   0.0000       1.588009        43.2119 
 188   0.0000       1.589596        43.2551 
 189   0.0000       1.593641        43.3652 
 190   0.0000       1.617368        44.0108 
 191   0.0000       1.632306        44.4173 
 192   0.0000       1.655200        45.0403 
 193   0.0000       1.657862        45.1127 
 194   0.0000       1.693222        46.0749 
 195   0.0000       1.696697        46.1695 
 196   0.0000       1.706999        46.4498 
 197   0.0000       1.715352        46.6771 
 198   0.0000       1.749345        47.6021 
 199   0.0000       1.767942        48.1082 
 200   0.0000       1.787315        48.6353 
 201   0.0000       1.808831        49.2208 
 202   0.0000       1.810284        49.2603 
 203   0.0000       1.818348        49.4798 
 204   0.0000       1.843224        50.1567 
 205   0.0000       1.863373        50.7050 
 206   0.0000       1.870660        50.9032 
 207   0.0000       1.920811        52.2679 
 208   0.0000       1.934189        52.6319 
 209   0.0000       1.953898        53.1683 
 210   0.0000       1.970962        53.6326 
 211   0.0000       1.978272        53.8315 
 212   0.0000       1.990734        54.1706 
 213   0.0000       2.011190        54.7273 
 214   0.0000       2.033997        55.3479 
 215   0.0000       2.048332        55.7380 
 216   0.0000       2.062244        56.1165 
 217   0.0000       2.112455        57.4828 
 218   0.0000       2.140522        58.2466 
 219   0.0000       2.148920        58.4751 
 220   0.0000       2.168655        59.0121 
 221   0.0000       2.174634        59.1748 
 222   0.0000       2.176970        59.2384 
 223   0.0000       2.205836        60.0238 
 224   0.0000       2.292826        62.3910 
 225   0.0000       2.324434        63.2511 
 226   0.0000       2.332657        63.4748 
 227   0.0000       2.334973        63.5378 
 228   0.0000       2.399272        65.2875 
 229   0.0000       2.429449        66.1087 
 230   0.0000       2.495242        67.8990 
 231   0.0000       2.564133        69.7736 
 232   0.0000       2.593316        70.5677 
 233   0.0000       2.597236        70.6744 
 234   0.0000       2.604158        70.8627 
 235   0.0000       2.628089        71.5139 
 236   0.0000       2.660129        72.3858 
 237   0.0000       2.663428        72.4756 
 238   0.0000       2.673526        72.7503 
 239   0.0000       2.674240        72.7698 
 240   0.0000       2.692507        73.2668 
 241   0.0000       2.767920        75.3189 
 242   0.0000       2.785264        75.7909 
 243   0.0000       2.828728        76.9736 
 244   0.0000       2.840028        77.2811 
 245   0.0000       2.858707        77.7894 
 246   0.0000       2.867580        78.0308 
 247   0.0000       2.883778        78.4716 
 248   0.0000       2.893902        78.7471 
 249   0.0000       2.901661        78.9582 
 250   0.0000       2.931202        79.7621 
 251   0.0000       2.939644        79.9918 
 252   0.0000       2.961490        80.5862 
 253   0.0000       2.977054        81.0098 
 254   0.0000       2.986686        81.2718 
 255   0.0000       3.001771        81.6824 
 256   0.0000       3.011943        81.9591 
 257   0.0000       3.097616        84.2904 
 258   0.0000       3.153021        85.7981 
 259   0.0000       3.188917        86.7748 
 260   0.0000       3.268944        88.9525 
 261   0.0000       3.307770        90.0090 
 262   0.0000       3.308025        90.0159 
 263   0.0000       3.343497        90.9812 
 264   0.0000       3.369069        91.6770 
 265   0.0000       3.454819        94.0104 
 266   0.0000       3.499206        95.2182 
 267   0.0000       3.559850        96.8685 
 268   0.0000       3.593630        97.7876 
 269   0.0000       3.681839       100.1879 
 270   0.0000       3.705059       100.8198 
 271   0.0000       3.754067       102.1534 
 272   0.0000       3.853319       104.8541 
 273   0.0000       3.887755       105.7912 
 274   0.0000       3.888996       105.8250 
 275   0.0000       3.891285       105.8873 
 276   0.0000       3.903314       106.2146 
 277   0.0000       3.924955       106.8034 
 278   0.0000       4.010821       109.1400 
 279   0.0000       4.059390       110.4616 
 280   0.0000       4.120527       112.1252 
 281   0.0000       4.143786       112.7582 
 282   0.0000       4.169111       113.4473 
 283   0.0000       4.405727       119.8859 
 284   0.0000       4.477784       121.8467 
 285   0.0000       4.510600       122.7397 
 286   0.0000       4.766298       129.6976 
 287   0.0000       4.943116       134.5090 
 288   0.0000       5.074205       138.0761 
 289   0.0000       5.111423       139.0889 
 290   0.0000       5.206800       141.6842 
 291   0.0000       5.246908       142.7756 
 292   0.0000       5.314629       144.6184 
 293   0.0000       5.700168       155.1094 
 294   0.0000       6.132895       166.8846 
 295   0.0000       6.407756       174.3639 
 296   0.0000       6.541481       178.0027 
 297   0.0000       6.843040       186.2086 
 298   0.0000       7.982780       217.2225 
 299   0.0000      17.546358       477.4607 
 300   0.0000      17.553582       477.6573 
 301   0.0000      17.647476       480.2122 
 302   0.0000      23.649337       643.5312 
 303   0.0000      23.890761       650.1007 
 304   0.0000      23.984421       652.6493 
 305   0.0000      24.031153       653.9209 
 306   0.0000      24.071148       655.0092 
 307   0.0000      24.181219       658.0044 
 308   0.0000      35.376212       962.6357 
 309   0.0000      35.657073       970.2783 
 310   0.0000      49.906858      1358.0347 
 311   0.0000      49.971161      1359.7844 
 312   0.0000      66.792228      1817.5089 
 313   0.0000     188.972477      5142.2025 

--------------------
FRAGMENT INFORMATION
--------------------
Fragment  1:    0   1   2   3   4   5 
Fragment  2:    6   7   8   9  10  11  12 
Fragment  3:   13  14  15  16 
Fragment  4:   17 


                    ********************************
                    * MULLIKEN POPULATION ANALYSIS *
                    ********************************

-------------------------
MULLIKEN FRAGMENT CHARGES
-------------------------
 Fragment   0 :  -0.431526
 Fragment   1 :   0.433751
 Fragment   2 :  -0.058932
 Fragment   3 :  -0.943293
Sum of fragment charges:   -1.0000000

---------------------------------
MULLIKEN FRAGMENT OVERLAP CHARGES
---------------------------------
                  0          1          2          3    
      0      20.570543   0.580472  -0.000211  -0.000619
      1       0.580472  34.953677   0.000469  -0.000437
      2      -0.000211   0.000469  11.699572  -0.653046
      3      -0.000619  -0.000437  -0.653046  17.270344

-----------------------
MULLIKEN ATOMIC CHARGES
-----------------------
   0 C :   -0.053812
   1 N :   -0.203248
   2 C :   -0.296953
   3 C :   -0.257659
   4 C :    0.428852
   5 C :   -0.048706
   6 N :   -0.139773
   7 O :   -0.004544
   8 O :   -0.216030
   9 F :   -0.109404
  10 H :    0.296019
  11 H :    0.281316
  12 H :    0.326167
  13 C :   -0.443041
  14 H :    0.127826
  15 H :    0.127995
  16 H :    0.128288
  17 S :   -0.943293
Sum of atomic charges:   -1.0000000

--------------------------------
MULLIKEN REDUCED ORBITAL CHARGES
--------------------------------
  0 C s       :     3.301457  s :     3.301457
      pz      :     0.674105  p :     2.591908
      px      :     0.975893
      py      :     0.941910
      dz2     :     0.052748  d :     0.160447
      dxz     :     0.048842
      dyz     :     0.028440
      dx2y2   :     0.013770
      dxy     :     0.016647
  1 N s       :     3.625159  s :     3.625159
      pz      :     1.142004  p :     3.547564
      px      :     1.240787
      py      :     1.164773
      dz2     :     0.008165  d :     0.030525
      dxz     :     0.007238
      dyz     :     0.004759
      dx2y2   :     0.005504
      dxy     :     0.004859
  2 C s       :     3.379127  s :     3.379127
      pz      :     0.811516  p :     2.833678
      px      :     1.168306
      py      :     0.853857
      dz2     :     0.023583  d :     0.084147
      dxz     :     0.032192
      dyz     :     0.014804
      dx2y2   :     0.007221
      dxy     :     0.006347
  3 C s       :     3.210977  s :     3.210977
      pz      :     1.156072  p :     2.993517
      px      :     0.870669
      py      :     0.966775
      dz2     :     0.015296  d :     0.053165
      dxz     :     0.017416
      dyz     :     0.005092
      dx2y2   :     0.008213
      dxy     :     0.007149
  4 C s       :     2.508042  s :     2.508042
      pz      :     0.914662  p :     3.006007
      px      :     1.246291
      py      :     0.845053
      dz2     :     0.016552  d :     0.057099
      dxz     :     0.015860
      dyz     :     0.010567
      dx2y2   :     0.007214
      dxy     :     0.006906
  5 C s       :     3.276059  s :     3.276059
      pz      :     1.096079  p :     2.699500
      px      :     0.478335
      py      :     1.125086
      dz2     :     0.013628  d :     0.073147
      dxz     :     0.029768
      dyz     :     0.010337
      dx2y2   :     0.011218
      dxy     :     0.008197
  6 N s       :     3.638281  s :     3.638281
      pz      :     1.072705  p :     3.392531
      px      :     1.215662
      py      :     1.104164
      dz2     :     0.027703  d :     0.108961
      dxz     :     0.039349
      dyz     :     0.023080
      dx2y2   :     0.008550
      dxy     :     0.010279
  7 O s       :     3.743545  s :     3.743545
      pz      :     1.019821  p :     4.242287
      px      :     1.822839
      py      :     1.399627
      dz2     :     0.009720  d :     0.018712
      dxz     :     0.003513
      dyz     :     0.005310
      dx2y2   :     0.000102
      dxy     :     0.000067
  8 O s       :     3.806578  s :     3.806578
      pz      :     1.624359  p :     4.397327
      px      :     1.214782
      py      :     1.558186
      dz2     :     0.001059  d :     0.012125
      dxz     :     0.004904
      dyz     :     0.000879
      dx2y2   :     0.003121
      dxy     :     0.002162
  9 F s       :     3.921953  s :     3.921953
      pz      :     1.390911  p :     5.182119
      px      :     1.916935
      py      :     1.874274
      dz2     :     0.003097  d :     0.005333
      dxz     :     0.000997
      dyz     :     0.001201
      dx2y2   :     0.000027
      dxy     :     0.000009
 10 H s       :     0.680082  s :     0.680082
      pz      :     0.005481  p :     0.023899
      px      :     0.014118
      py      :     0.004299
 11 H s       :     0.693719  s :     0.693719
      pz      :     0.016372  p :     0.024965
      px      :     0.003657
      py      :     0.004935
 12 H s       :     0.648318  s :     0.648318
      pz      :     0.007744  p :     0.025515
      px      :     0.013373
      py      :     0.004399
 13 C s       :     3.301914  s :     3.301914
      pz      :     1.060000  p :     3.088501
      px      :     0.969009
      py      :     1.059492
      dz2     :     0.009018  d :     0.052626
      dxz     :     0.012268
      dyz     :     0.007960
      dx2y2   :     0.011136
      dxy     :     0.012244
 14 H s       :     0.849470  s :     0.849470
      pz      :     0.012273  p :     0.022703
      px      :     0.005696
      py      :     0.004735
 15 H s       :     0.849265  s :     0.849265
      pz      :     0.006067  p :     0.022740
      px      :     0.005713
      py      :     0.010959
 16 H s       :     0.849019  s :     0.849019
      pz      :     0.007161  p :     0.022693
      px      :     0.005690
      py      :     0.009842
 17 S s       :     5.981777  s :     5.981777
      pz      :     3.994518  p :    10.930095
      px      :     2.939113
      py      :     3.996464
      dz2     :     0.005600  d :     0.031421
      dxz     :     0.004520
      dyz     :     0.000025
      dx2y2   :     0.016759
      dxy     :     0.004518


                     *******************************
                     * LOEWDIN POPULATION ANALYSIS *
                     *******************************

------------------------
LOEWDIN FRAGMENT CHARGES
------------------------
 Fragment   0 :   0.057894
 Fragment   1 :  -0.059417
 Fragment   2 :  -0.354298
 Fragment   3 :  -0.644179

----------------------------
LOEWDIN FRAGMENT BOND ORDERS
----------------------------
                  0          1          2          3    
      0      56.960470   6.777606   0.000186   0.001589
      1       6.777606  43.785899   0.003718   0.026249
      2       0.000186   0.003718  15.414025   1.745756
      3       0.001589   0.026249   1.745756  16.644179

----------------------
LOEWDIN ATOMIC CHARGES
----------------------
   0 C :    0.111583
   1 N :   -0.111962
   2 C :    0.077201
   3 C :   -0.033757
   4 C :    0.078327
   5 C :   -0.063498
   6 N :    0.240336
   7 O :   -0.152534
   8 O :   -0.340973
   9 F :   -0.078155
  10 H :    0.086984
  11 H :    0.084570
  12 H :    0.100355
  13 C :   -0.358322
  14 H :    0.001501
  15 H :    0.001068
  16 H :    0.001455
  17 S :   -0.644179

-------------------------------
LOEWDIN REDUCED ORBITAL CHARGES
-------------------------------
  0 C s       :     2.743659  s :     2.743659
      pz      :     0.849312  p :     2.815646
      px      :     1.080438
      py      :     0.885897
      dz2     :     0.112511  d :     0.329112
      dxz     :     0.100714
      dyz     :     0.050391
      dx2y2   :     0.033873
      dxy     :     0.031622
  1 N s       :     3.151571  s :     3.151571
      pz      :     1.301226  p :     3.903553
      px      :     1.416918
      py      :     1.185409
      dz2     :     0.017386  d :     0.056838
      dxz     :     0.015718
      dyz     :     0.007794
      dx2y2   :     0.009542
      dxy     :     0.006398
  2 C s       :     2.786858  s :     2.786858
      pz      :     1.032878  p :     2.954095
      px      :     1.096513
      py      :     0.824704
      dz2     :     0.060305  d :     0.181845
      dxz     :     0.069051
      dyz     :     0.027986
      dx2y2   :     0.014016
      dxy     :     0.010487
  3 C s       :     2.781198  s :     2.781198
      pz      :     1.081317  p :     3.128199
      px      :     1.092130
      py      :     0.954752
      dz2     :     0.034118  d :     0.124360
      dxz     :     0.045069
      dyz     :     0.008011
      dx2y2   :     0.022212
      dxy     :     0.014950
  4 C s       :     2.779121  s :     2.779121
      pz      :     1.065929  p :     3.014268
      px      :     1.108213
      py      :     0.840127
      dz2     :     0.040905  d :     0.128283
      dxz     :     0.039159
      dyz     :     0.021245
      dx2y2   :     0.015049
      dxy     :     0.011924
  5 C s       :     2.757680  s :     2.757680
      pz      :     1.088493  p :     3.125478
      px      :     0.957470
      py      :     1.079515
      dz2     :     0.039912  d :     0.180340
      dxz     :     0.071781
      dyz     :     0.019827
      dx2y2   :     0.031420
      dxy     :     0.017401
  6 N s       :     3.052165  s :     3.052165
      pz      :     1.206140  p :     3.501188
      px      :     1.215703
      py      :     1.079345
      dz2     :     0.060431  d :     0.206310
      dxz     :     0.076164
      dyz     :     0.035688
      dx2y2   :     0.017513
      dxy     :     0.016513
  7 O s       :     3.580326  s :     3.580326
      pz      :     1.283470  p :     4.539884
      px      :     1.838425
      py      :     1.417989
      dz2     :     0.020440  d :     0.032325
      dxz     :     0.005159
      dyz     :     0.006536
      dx2y2   :     0.000119
      dxy     :     0.000072
  8 O s       :     3.666705  s :     3.666705
      pz      :     1.710734  p :     4.653768
      px      :     1.371520
      py      :     1.571513
      dz2     :     0.001546  d :     0.020500
      dxz     :     0.009268
      dyz     :     0.001174
      dx2y2   :     0.005719
      dxy     :     0.002793
  9 F s       :     3.714946  s :     3.714946
      pz      :     1.535218  p :     5.355839
      px      :     1.934333
      py      :     1.886289
      dz2     :     0.004766  d :     0.007370
      dxz     :     0.001184
      dyz     :     0.001375
      dx2y2   :     0.000036
      dxy     :     0.000009
 10 H s       :     0.842618  s :     0.842618
      pz      :     0.016676  p :     0.070398
      px      :     0.042289
      py      :     0.011433
 11 H s       :     0.842981  s :     0.842981
      pz      :     0.047833  p :     0.072450
      px      :     0.011209
      py      :     0.013407
 12 H s       :     0.826403  s :     0.826403
      pz      :     0.023098  p :     0.073241
      px      :     0.038733
      py      :     0.011411
 13 C s       :     2.858630  s :     2.858630
      pz      :     1.117734  p :     3.392798
      px      :     1.157187
      py      :     1.117877
      dz2     :     0.018308  d :     0.106893
      dxz     :     0.024344
      dyz     :     0.015037
      dx2y2   :     0.024895
      dxy     :     0.024310
 14 H s       :     0.926678  s :     0.926678
      pz      :     0.039304  p :     0.071821
      px      :     0.018783
      py      :     0.013734
 15 H s       :     0.927089  s :     0.927089
      pz      :     0.018252  p :     0.071843
      px      :     0.018792
      py      :     0.034799
 16 H s       :     0.926857  s :     0.926857
      pz      :     0.021963  p :     0.071688
      px      :     0.018722
      py      :     0.031002
 17 S s       :     5.609629  s :     5.609629
      pz      :     3.933672  p :    10.997354
      px      :     3.127308
      py      :     3.936375
      dz2     :     0.006769  d :     0.037196
      dxz     :     0.005058
      dyz     :     0.000028
      dx2y2   :     0.020281
      dxy     :     0.005059


                      *****************************
                      * MAYER POPULATION ANALYSIS *
                      *****************************

  NA   - Mulliken gross atomic population
  ZA   - Total nuclear charge
  QA   - Mulliken gross atomic charge
  VA   - Mayer's total valence
  BVA  - Mayer's bonded valence
  FA   - Mayer's free valence

  ATOM       NA         ZA         QA         VA         BVA        FA
  0 C      6.0538     6.0000    -0.0538     4.3406     4.3406     0.0000
  1 N      7.2032     7.0000    -0.2032     2.6966     2.6966     0.0000
  2 C      6.2970     6.0000    -0.2970     3.9719     3.9719     0.0000
  3 C      6.2577     6.0000    -0.2577     4.3320     4.3320     0.0000
  4 C      5.5711     6.0000     0.4289     4.1661     4.1661     0.0000
  5 C      6.0487     6.0000    -0.0487     3.3126     3.3126    -0.0000
  6 N      7.1398     7.0000    -0.1398     3.9539     3.9539     0.0000
  7 O      8.0045     8.0000    -0.0045     2.1861     2.1861    -0.0000
  8 O      8.2160     8.0000    -0.2160     1.9983     1.9983     0.0000
  9 F      9.1094     9.0000    -0.1094     0.9713     0.9713     0.0000
 10 H      0.7040     1.0000     0.2960     0.8710     0.8710     0.0000
 11 H      0.7187     1.0000     0.2813     0.9032     0.9032     0.0000
 12 H      0.6738     1.0000     0.3262     0.8379     0.8379    -0.0000
 13 C      6.4430     6.0000    -0.4430     3.6181     3.6181     0.0000
 14 H      0.8722     1.0000     0.1278     0.9429     0.9429     0.0000
 15 H      0.8720     1.0000     0.1280     0.9412     0.9412    -0.0000
 16 H      0.8717     1.0000     0.1283     0.9410     0.9410     0.0000
 17 S     16.9433    16.0000    -0.9433     0.6253     0.6253    -0.0000

  Mayer bond orders larger than 0.100000
B(  0-C ,  1-N ) :   1.2925 B(  0-C ,  2-C ) :   0.1864 B(  0-C ,  3-C ) :   0.1409 
B(  0-C ,  4-C ) :   0.3051 B(  0-C ,  5-C ) :   1.1927 B(  0-C ,  6-N ) :  -0.1870 
B(  0-C ,  9-F ) :   1.4068 B(  1-N ,  2-C ) :   1.1805 B(  1-N ,  5-C ) :   0.1773 
B(  2-C ,  3-C ) :   1.5857 B(  2-C , 10-H ) :   0.8841 B(  3-C ,  4-C ) :   1.4792 
B(  3-C ,  8-O ) :   0.1233 B(  3-C , 11-H ) :   0.8442 B(  4-C ,  5-C ) :   1.5969 
B(  4-C ,  6-N ) :  -0.1266 B(  4-C ,  8-O ) :   0.1806 B(  4-C ,  9-F ) :  -0.1220 
B(  4-C , 12-H ) :   0.7486 B(  5-C ,  6-N ) :   0.7526 B(  5-C ,  7-O ) :  -0.1204 
B(  5-C ,  8-O ) :  -0.1875 B(  5-C ,  9-F ) :  -0.3592 B(  5-C , 12-H ) :   0.1226 
B(  6-N ,  7-O ) :   1.8599 B(  6-N ,  8-O ) :   1.6702 B(  7-O ,  8-O ) :   0.2531 
[...]
 288   0.0000       5.084643       138.3602 
 289   0.0000       5.127123       139.5161 
 290   0.0000       5.213609       141.8695 
 291   0.0000       5.290790       143.9697 
 292   0.0000       5.365105       145.9919 
 293   0.0000       5.836663       158.8237 
 294   0.0000       6.285980       171.0502 
 295   0.0000       6.415737       174.5811 
 296   0.0000       6.551809       178.2838 
 297   0.0000       6.865751       186.8266 
 298   0.0000       7.983204       217.2340 
 299   0.0000      17.546453       477.4633 
 300   0.0000      17.554098       477.6713 
 301   0.0000      17.648531       480.2409 
 302   0.0000      23.710852       645.2051 
 303   0.0000      23.963520       652.0805 
 304   0.0000      24.026058       653.7823 
 305   0.0000      24.031457       653.9292 
 306   0.0000      24.182892       658.0500 
 307   0.0000      24.294952       661.0992 
 308   0.0000      35.415995       963.7182 
 309   0.0000      35.734711       972.3909 
 310   0.0000      49.917385      1358.3211 
 311   0.0000      50.016532      1361.0190 
 312   0.0000      66.806312      1817.8922 
 313   0.0000     188.972993      5142.2166 

--------------------
FRAGMENT INFORMATION
--------------------
Fragment  1:    0   1   2   3   4   5 
Fragment  2:    6   7   8   9  10  11  12 
Fragment  3:   13  14  15  16 
Fragment  4:   17 


                    ********************************
                    * MULLIKEN POPULATION ANALYSIS *
                    ********************************

-------------------------
MULLIKEN FRAGMENT CHARGES
-------------------------
 Fragment   0 :  -0.405409
 Fragment   1 :   0.407031
 Fragment   2 :  -0.061954
 Fragment   3 :  -0.939669
Sum of fragment charges:   -1.0000000

---------------------------------
MULLIKEN FRAGMENT OVERLAP CHARGES
---------------------------------
                  0          1          2          3    
      0      17.415304   0.468530   0.000225  -0.001079
      1       0.468530  35.082707   0.000723  -0.002009
      2       0.000225   0.000723  11.699799  -0.649370
      3      -0.001079  -0.002009  -0.649370  17.265898

-----------------------
MULLIKEN ATOMIC CHARGES
-----------------------
   0 C :    0.012831
   1 N :   -0.190243
   2 C :   -0.307446
   3 C :   -0.314773
   4 C :    0.393184
   5 C :    0.001039
   6 N :   -0.125409
   7 O :   -0.080046
   8 O :   -0.128865
   9 F :   -0.126000
  10 H :    0.287491
  11 H :    0.284416
  12 H :    0.295444
  13 C :   -0.446597
  14 H :    0.127981
  15 H :    0.128064
  16 H :    0.128598
  17 S :   -0.939669
Sum of atomic charges:   -1.0000000

--------------------------------
MULLIKEN REDUCED ORBITAL CHARGES
--------------------------------
  0 C s       :     3.221099  s :     3.221099
      pz      :     0.672155  p :     2.595397
      px      :     0.980479
      py      :     0.942762
      dz2     :     0.057301  d :     0.170674
      dxz     :     0.050851
      dyz     :     0.029459
      dx2y2   :     0.014672
      dxy     :     0.018390
  1 N s       :     3.609700  s :     3.609700
      pz      :     1.147992  p :     3.545969
      px      :     1.245303
      py      :     1.152673
      dz2     :     0.008808  d :     0.034575
      dxz     :     0.008494
      dyz     :     0.005111
      dx2y2   :     0.006197
      dxy     :     0.005965
  2 C s       :     3.335598  s :     3.335598
      pz      :     0.825467  p :     2.883469
      px      :     1.183817
      py      :     0.874185
      dz2     :     0.025209  d :     0.088379
      dxz     :     0.032928
      dyz     :     0.015715
      dx2y2   :     0.007940
      dxy     :     0.006587
  3 C s       :     3.241179  s :     3.241179
      pz      :     1.152555  p :     3.017473
      px      :     0.895000
      py      :     0.969918
      dz2     :     0.016043  d :     0.056121
      dxz     :     0.018749
      dyz     :     0.005888
      dx2y2   :     0.008038
      dxy     :     0.007403
  4 C s       :     2.533249  s :     2.533249
      pz      :     0.933228  p :     3.011079
      px      :     1.233672
      py      :     0.844178
      dz2     :     0.019044  d :     0.062488
      dxz     :     0.015039
      dyz     :     0.012257
      dx2y2   :     0.008881
      dxy     :     0.007267
  5 C s       :     3.224700  s :     3.224700
      pz      :     1.082621  p :     2.698238
      px      :     0.489915
      py      :     1.125702
      dz2     :     0.013601  d :     0.076023
      dxz     :     0.032092
      dyz     :     0.010902
      dx2y2   :     0.011274
      dxy     :     0.008155
  6 N s       :     3.575355  s :     3.575355
      pz      :     1.082038  p :     3.421866
      px      :     1.227385
      py      :     1.112443
      dz2     :     0.033913  d :     0.128187
      dxz     :     0.042874
      dyz     :     0.026431
      dx2y2   :     0.011288
      dxy     :     0.013681
  7 O s       :     3.759091  s :     3.759091
      pz      :     1.019443  p :     4.302676
      px      :     1.832672
      py      :     1.450561
      dz2     :     0.009697  d :     0.018279
      dxz     :     0.003316
      dyz     :     0.005081
      dx2y2   :     0.000110
      dxy     :     0.000076
  8 O s       :     3.772617  s :     3.772617
      pz      :     1.605068  p :     4.338856
      px      :     1.264971
      py      :     1.468817
      dz2     :     0.001834  d :     0.017393
      dxz     :     0.006366
      dyz     :     0.001483
      dx2y2   :     0.004138
      dxy     :     0.003572
  9 F s       :     3.921445  s :     3.921445
      pz      :     1.401437  p :     5.199324
      px      :     1.919434
      py      :     1.878454
      dz2     :     0.003048  d :     0.005231
      dxz     :     0.000973
      dyz     :     0.001171
      dx2y2   :     0.000029
      dxy     :     0.000010
 10 H s       :     0.689197  s :     0.689197
      pz      :     0.004488  p :     0.023312
      px      :     0.014486
      py      :     0.004337
 11 H s       :     0.690282  s :     0.690282
      pz      :     0.016485  p :     0.025302
      px      :     0.003810
      py      :     0.005007
 12 H s       :     0.675642  s :     0.675642
      pz      :     0.007642  p :     0.028914
      px      :     0.015945
      py      :     0.005326
 13 C s       :     3.304930  s :     3.304930
      pz      :     1.060086  p :     3.089041
      px      :     0.969512
      py      :     1.059443
      dz2     :     0.008901  d :     0.052626
      dxz     :     0.012351
      dyz     :     0.008033
      dx2y2   :     0.011180
      dxy     :     0.012161
 14 H s       :     0.849327  s :     0.849327
      pz      :     0.012238  p :     0.022692
      px      :     0.005725
      py      :     0.004729
 15 H s       :     0.849208  s :     0.849208
      pz      :     0.006081  p :     0.022728
      px      :     0.005685
      py      :     0.010962
 16 H s       :     0.848690  s :     0.848690
      pz      :     0.007181  p :     0.022712
      px      :     0.005688
      py      :     0.009842
 17 S s       :     5.979446  s :     5.979446
      pz      :     3.994137  p :    10.928799
      px      :     2.938209
      py      :     3.996453
      dz2     :     0.005596  d :     0.031424
      dxz     :     0.004524
      dyz     :     0.000028
      dx2y2   :     0.016762
      dxy     :     0.004514


                     *******************************
                     * LOEWDIN POPULATION ANALYSIS *
                     *******************************

------------------------
LOEWDIN FRAGMENT CHARGES
------------------------
 Fragment   0 :   0.059703
 Fragment   1 :  -0.061825
 Fragment   2 :  -0.354220
 Fragment   3 :  -0.643658

----------------------------
LOEWDIN FRAGMENT BOND ORDERS
----------------------------
                  0          1          2          3    
      0      57.149347   6.739775   0.000199   0.001758
      1       6.739775  44.126564   0.003972   0.027197
      2       0.000199   0.003972  15.413579   1.745835
      3       0.001758   0.027197   1.745835  16.643658

----------------------
LOEWDIN ATOMIC CHARGES
----------------------
   0 C :    0.086260
   1 N :   -0.079387
   2 C :    0.060488
   3 C :   -0.026389
   4 C :    0.077963
   5 C :   -0.059233
   6 N :    0.217490
   7 O :   -0.199321
   8 O :   -0.242411
   9 F :   -0.087935
  10 H :    0.083814
  11 H :    0.086903
  12 H :    0.079635
  13 C :   -0.358335
  14 H :    0.001620
  15 H :    0.001142
  16 H :    0.001353
  17 S :   -0.643658

-------------------------------
LOEWDIN REDUCED ORBITAL CHARGES
-------------------------------
  0 C s       :     2.730679  s :     2.730679
      pz      :     0.851355  p :     2.831369
      px      :     1.094962
      py      :     0.885052
      dz2     :     0.122166  d :     0.351692
      dxz     :     0.104495
      dyz     :     0.052120
      dx2y2   :     0.037316
      dxy     :     0.035594
  1 N s       :     3.111023  s :     3.111023
      pz      :     1.299364  p :     3.903510
      px      :     1.430893
      py      :     1.173252
      dz2     :     0.019075  d :     0.064854
      dxz     :     0.018019
      dyz     :     0.008886
      dx2y2   :     0.010913
      dxy     :     0.007962
  2 C s       :     2.774819  s :     2.774819
      pz      :     1.039741  p :     2.972634
      px      :     1.091904
      py      :     0.840989
      dz2     :     0.064077  d :     0.192059
      dxz     :     0.071742
      dyz     :     0.030291
      dx2y2   :     0.015157
      dxy     :     0.010792
  3 C s       :     2.770468  s :     2.770468
      pz      :     1.079298  p :     3.126589
      px      :     1.090658
      py      :     0.956633
      dz2     :     0.035269  d :     0.129332
      dxz     :     0.047577
      dyz     :     0.009072
      dx2y2   :     0.021859
      dxy     :     0.015554
  4 C s       :     2.749848  s :     2.749848
      pz      :     1.090255  p :     3.030075
      px      :     1.101666
      py      :     0.838154
      dz2     :     0.046443  d :     0.142114
      dxz     :     0.040047
      dyz     :     0.024923
      dx2y2   :     0.017736
      dxy     :     0.012965
  5 C s       :     2.744787  s :     2.744787
      pz      :     1.098717  p :     3.126194
      px      :     0.951317
      py      :     1.076160
      dz2     :     0.040643  d :     0.188252
      dxz     :     0.077463
      dyz     :     0.021389
      dx2y2   :     0.031351
      dxy     :     0.017407
  6 N s       :     3.014371  s :     3.014371
      pz      :     1.213285  p :     3.521751
      px      :     1.225502
      py      :     1.082964
      dz2     :     0.072719  d :     0.246388
      dxz     :     0.086035
      dyz     :     0.041477
      dx2y2   :     0.023983
      dxy     :     0.022175
  7 O s       :     3.574552  s :     3.574552
      pz      :     1.280080  p :     4.592952
      px      :     1.846564
      py      :     1.466309
      dz2     :     0.020344  d :     0.031816
      dxz     :     0.004959
      dyz     :     0.006298
      dx2y2   :     0.000134
      dxy     :     0.000081
  8 O s       :     3.584291  s :     3.584291
      pz      :     1.710118  p :     4.627763
      px      :     1.431485
      py      :     1.486160
      dz2     :     0.002786  d :     0.030357
      dxz     :     0.012827
      dyz     :     0.002033
      dx2y2   :     0.008024
      dxy     :     0.004687
  9 F s       :     3.713769  s :     3.713769
      pz      :     1.539916  p :     5.366907
      px      :     1.937444
      py      :     1.889547
      dz2     :     0.004697  d :     0.007259
      dxz     :     0.001170
      dyz     :     0.001343
      dx2y2   :     0.000039
      dxy     :     0.000010
 10 H s       :     0.847475  s :     0.847475
      pz      :     0.014026  p :     0.068712
      px      :     0.042959
      py      :     0.011726
 11 H s       :     0.840763  s :     0.840763
      pz      :     0.047615  p :     0.072334
      px      :     0.011302
      py      :     0.013417
 12 H s       :     0.837474  s :     0.837474
      pz      :     0.022082  p :     0.082891
      px      :     0.046669
      py      :     0.014140
 13 C s       :     2.858625  s :     2.858625
      pz      :     1.117702  p :     3.392820
      px      :     1.157226
      py      :     1.117892
      dz2     :     0.018072  d :     0.106890
      dxz     :     0.024511
      dyz     :     0.015181
      dx2y2   :     0.024986
      dxy     :     0.024141
 14 H s       :     0.926603  s :     0.926603
      pz      :     0.039174  p :     0.071777
      px      :     0.018889
      py      :     0.013714
 15 H s       :     0.927066  s :     0.927066
      pz      :     0.018299  p :     0.071792
      px      :     0.018691
      py      :     0.034802
 16 H s       :     0.926864  s :     0.926864
      pz      :     0.022045  p :     0.071783
      px      :     0.018719
      py      :     0.031019
 17 S s       :     5.609353  s :     5.609353
      pz      :     3.933351  p :    10.997102
      px      :     3.127443
      py      :     3.936308
      dz2     :     0.006765  d :     0.037203
      dxz     :     0.005063
      dyz     :     0.000031
      dx2y2   :     0.020288
      dxy     :     0.005056


                      *****************************
                      * MAYER POPULATION ANALYSIS *
                      *****************************

  NA   - Mulliken gross atomic population
  ZA   - Total nuclear charge
  QA   - Mulliken gross atomic charge
  VA   - Mayer's total valence
  BVA  - Mayer's bonded valence
  FA   - Mayer's free valence

  ATOM       NA         ZA         QA         VA         BVA        FA
  0 C      5.9872     6.0000     0.0128     4.2612     4.2612    -0.0000
  1 N      7.1902     7.0000    -0.1902     2.7246     2.7246     0.0000
  2 C      6.3074     6.0000    -0.3074     4.0555     4.0555     0.0000
  3 C      6.3148     6.0000    -0.3148     4.4300     4.4300    -0.0000
  4 C      5.6068     6.0000     0.3932     4.2915     4.2915    -0.0000
  5 C      5.9990     6.0000     0.0010     3.3702     3.3702     0.0000
  6 N      7.1254     7.0000    -0.1254     4.0589     4.0589     0.0000
  7 O      8.0800     8.0000    -0.0800     2.1142     2.1142     0.0000
  8 O      8.1289     8.0000    -0.1289     2.1415     2.1415    -0.0000
  9 F      9.1260     9.0000    -0.1260     0.9342     0.9342     0.0000
 10 H      0.7125     1.0000     0.2875     0.8708     0.8708    -0.0000
 11 H      0.7156     1.0000     0.2844     0.9030     0.9030    -0.0000
 12 H      0.7046     1.0000     0.2954     0.8634     0.8634    -0.0000
 13 C      6.4466     6.0000    -0.4466     3.6197     3.6197     0.0000
 14 H      0.8720     1.0000     0.1280     0.9428     0.9428    -0.0000
 15 H      0.8719     1.0000     0.1281     0.9409     0.9409     0.0000
 16 H      0.8714     1.0000     0.1286     0.9406     0.9406    -0.0000
 17 S     16.9397    16.0000    -0.9397     0.6241     0.6241    -0.0000

  Mayer bond orders larger than 0.100000
B(  0-C ,  1-N ) :   1.3183 B(  0-C ,  2-C ) :   0.1637 B(  0-C ,  3-C ) :   0.1785 
B(  0-C ,  4-C ) :   0.3023 B(  0-C ,  5-C ) :   1.1466 B(  0-C ,  6-N ) :  -0.1781 
B(  0-C ,  9-F ) :   1.3661 B(  1-N ,  2-C ) :   1.1454 B(  1-N ,  5-C ) :   0.2010 
B(  2-C ,  3-C ) :   1.6909 B(  2-C ,  5-C ) :   0.1163 B(  2-C , 10-H ) :   0.8830 
B(  3-C ,  4-C ) :   1.4095 B(  3-C ,  8-O ) :   0.1331 B(  3-C , 11-H ) :   0.8367 
B(  4-C ,  5-C ) :   1.7379 B(  4-C ,  8-O ) :   0.2588 B(  4-C ,  9-F ) :  -0.1501 
B(  4-C , 12-H ) :   0.7388 B(  5-C ,  6-N ) :   0.7123 B(  5-C ,  7-O ) :  -0.1303 
B(  5-C ,  8-O ) :  -0.2595 B(  5-C ,  9-F ) :  -0.3266 B(  5-C , 12-H ) :   0.1350 
B(  6-N ,  7-O ) :   1.8352 B(  6-N ,  8-O ) :   1.8292 B(  7-O ,  8-O ) :   0.2367 
B( 13-C , 14-H ) :   0.9830 B( 13-C , 15-H ) :   0.9889 B( 13-C , 16-H ) :   0.9858 
B( 13-C , 17-S ) :   0.6624 

-------
TIMINGS
-------

Total SCF time: 0 days 0 hours 0 min 16 sec 

Total time                  ....      16.070 sec
Sum of individual times     ....      15.299 sec  ( 95.2%)

Fock matrix formation       ....      13.095 sec  ( 81.5%)
  Split-RI-J                ....       0.822 sec  (  6.3% of F)
  Chain of spheres X        ....       9.521 sec  ( 72.7% of F)
  XC integration            ....       1.473 sec  ( 11.2% of F)
    Basis function eval.    ....       0.122 sec  (  8.3% of XC)
    Density eval.           ....       0.478 sec  ( 32.4% of XC)
    XC-Functional eval.     ....       0.102 sec  (  6.9% of XC)
    XC-Potential eval.      ....       0.099 sec  (  6.7% of XC)
Diagonalization             ....       0.026 sec  (  0.2%)
Density matrix formation    ....       0.010 sec  (  0.1%)
Population analysis         ....       0.058 sec  (  0.4%)
Initial guess               ....       0.044 sec  (  0.3%)
Orbital Transformation      ....       0.000 sec  (  0.0%)
Orbital Orthonormalization  ....       0.032 sec  (  0.2%)
DIIS solution               ....       0.011 sec  (  0.1%)
SOSCF solution              ....       0.096 sec  (  0.6%)
Grid generation             ....       1.959 sec  ( 12.2%)

Maximum memory used throughout the entire SCF-calculation: 68.5 MB

-------------------------   --------------------
FINAL SINGLE POINT ENERGY      -990.257639384784
-------------------------   --------------------

                                *** OPTIMIZATION RUN DONE ***

                            ***************************************
                            *     ORCA property calculations      *
                            ***************************************

                                    ---------------------
                                    Active property flags
                                    ---------------------
   (+) Dipole Moment


------------------------------------------------------------------------------
                       ORCA ELECTRIC PROPERTIES CALCULATION
------------------------------------------------------------------------------

Dipole Moment Calculation                       ... on
Quadrupole Moment Calculation                   ... off
Polarizability Calculation                      ... off
GBWName                                         ... structure_opt.gbw
Electron density                                ... structure_opt.scfp
The origin for moment calculation is the CENTER OF MASS  = (-4.844029,  0.210354  3.407707)

-------------
DIPOLE MOMENT
-------------
                                X             Y             Z
Electronic contribution:     22.34307       0.53277       1.60473
Nuclear contribution   :    -13.18282      -0.55753       4.58081
                        -----------------------------------------
Total Dipole Moment    :      9.16025      -0.02476       6.18554
                        -----------------------------------------
Magnitude (a.u.)       :     11.05313
Magnitude (Debye)      :     28.09482



--------------------
Rotational spectrum 
--------------------
 
Rotational constants in cm-1:     0.072344     0.007747     0.007066 
Rotational constants in MHz :  2168.822338   232.248970   211.834477 

 Dipole components along the rotational axes: 
x,y,z [a.u.] :    10.733591     2.638376    -0.025607 
x,y,z [Debye]:    27.282620     6.706220    -0.065088 

 

Timings for individual modules:

Sum of individual times         ...      953.010 sec (=  15.883 min)
GTO integral calculation        ...       52.463 sec (=   0.874 min)   5.5 %
SCF iterations                  ...      744.232 sec (=  12.404 min)  78.1 %
SCF Gradient evaluation         ...      155.477 sec (=   2.591 min)  16.3 %
Geometry relaxation             ...        0.838 sec (=   0.014 min)   0.1 %
                             ****ORCA TERMINATED NORMALLY****
TOTAL RUN TIME: 0 days 0 hours 16 minutes 48 seconds 413 msec
