
                                 *****************
                                 * O   R   C   A *
                                 *****************

                                            #,                                       
                                            ###                                      
                                            ####                                     
                                            #####                                    
                                            ######                                   
                                           ########,                                 
                                     ,,################,,,,,                         
                               ,,#################################,,                 
                          ,,##########################################,,             
                       ,#########################################, ''#####,          
                    ,#############################################,,   '####,        
                  ,##################################################,,,,####,       
                ,###########''''           ''''###############################       
              ,#####''   ,,,,##########,,,,          '''####'''          '####       
            ,##' ,,,,###########################,,,                        '##       
           ' ,,###''''                  '''############,,,                           
         ,,##''                                '''############,,,,        ,,,,,,###''
      ,#''                                            '''#######################'''  
     '                                                          ''''####''''         
             ,#######,   #######,   ,#######,      ##                                
            ,#'     '#,  ##    ##  ,#'     '#,    #''#        ######   ,####,        
            ##       ##  ##   ,#'  ##            #'  '#       #        #'  '#        
            ##       ##  #######   ##           ,######,      #####,   #    #        
            '#,     ,#'  ##    ##  '#,     ,#' ,#      #,         ##   #,  ,#        
             '#######'   ##     ##  '#######'  #'      '#     #####' # '####'        



                  #######################################################
                  #                        -***-                        #
                  #          Department of theory and spectroscopy      #
                  #    Directorship and core code : Frank Neese         #
                  #        Max Planck Institute fuer Kohlenforschung    #
                  #                Kaiser Wilhelm Platz 1               #
                  #                 D-45470 Muelheim/Ruhr               #
                  #                      Germany                        #
                  #                                                     #
                  #                  All rights reserved                #
                  #                        -***-                        #
                  #######################################################


                         Program Version 5.0.1 -  RELEASE  -


 With contributions from (in alphabetic order):
   Daniel Aravena         : Magnetic Suceptibility
   Michael Atanasov       : Ab Initio Ligand Field Theory (pilot matlab implementation)
   Alexander A. Auer      : GIAO ZORA, VPT2 properties, NMR spectrum
   Ute Becker             : Parallelization
   Giovanni Bistoni       : ED, misc. LED, open-shell LED, HFLD
   Martin Brehm           : Molecular dynamics
   Dmytro Bykov           : SCF Hessian
   Vijay G. Chilkuri      : MRCI spin determinant printing, contributions to CSF-ICE
   Dipayan Datta          : RHF DLPNO-CCSD density
   Achintya Kumar Dutta   : EOM-CC, STEOM-CC
   Dmitry Ganyushin       : Spin-Orbit,Spin-Spin,Magnetic field MRCI
   Miquel Garcia          : C-PCM and meta-GGA Hessian, CC/C-PCM, Gaussian charge scheme
   Yang Guo               : DLPNO-NEVPT2, F12-NEVPT2, CIM, IAO-localization
   Andreas Hansen         : Spin unrestricted coupled pair/coupled cluster methods
   Benjamin Helmich-Paris : MC-RPA, TRAH-SCF, COSX integrals
   Lee Huntington         : MR-EOM, pCC
   Robert Izsak           : Overlap fitted RIJCOSX, COSX-SCS-MP3, EOM
   Marcus Kettner         : VPT2
   Christian Kollmar      : KDIIS, OOCD, Brueckner-CCSD(T), CCSD density, CASPT2, CASPT2-K
   Simone Kossmann        : Meta GGA functionals, TD-DFT gradient, OOMP2, MP2 Hessian
   Martin Krupicka        : Initial AUTO-CI
   Lucas Lang             : DCDCAS
   Marvin Lechner         : AUTO-CI (C++ implementation), FIC-MRCC
   Dagmar Lenk            : GEPOL surface, SMD
   Dimitrios Liakos       : Extrapolation schemes; Compound Job, initial MDCI parallelization
   Dimitrios Manganas     : Further ROCIS development; embedding schemes
   Dimitrios Pantazis     : SARC Basis sets
   Anastasios Papadopoulos: AUTO-CI, single reference methods and gradients
   Taras Petrenko         : DFT Hessian,TD-DFT gradient, ASA, ECA, R-Raman, ABS, FL, XAS/XES, NRVS
   Peter Pinski           : DLPNO-MP2, DLPNO-MP2 Gradient
   Christoph Reimann      : Effective Core Potentials
   Marius Retegan         : Local ZFS, SOC
   Christoph Riplinger    : Optimizer, TS searches, QM/MM, DLPNO-CCSD(T), (RO)-DLPNO pert. Triples
   Tobias Risthaus        : Range-separated hybrids, TD-DFT gradient, RPA, STAB
   Michael Roemelt        : Original ROCIS implementation
   Masaaki Saitow         : Open-shell DLPNO-CCSD energy and density
   Barbara Sandhoefer     : DKH picture change effects
   Avijit Sen             : IP-ROCIS
   Kantharuban Sivalingam : CASSCF convergence, NEVPT2, FIC-MRCI
   Bernardo de Souza      : ESD, SOC TD-DFT
   Georgi Stoychev        : AutoAux, RI-MP2 NMR, DLPNO-MP2 response
   Willem Van den Heuvel  : Paramagnetic NMR
   Boris Wezisla          : Elementary symmetry handling
   Frank Wennmohs         : Technical directorship


 We gratefully acknowledge several colleagues who have allowed us to
 interface, adapt or use parts of their codes:
   Stefan Grimme, W. Hujo, H. Kruse, P. Pracht,  : VdW corrections, initial TS optimization,
                  C. Bannwarth, S. Ehlert          DFT functionals, gCP, sTDA/sTD-DF
   Ed Valeev, F. Pavosevic, A. Kumar             : LibInt (2-el integral package), F12 methods
   Garnet Chan, S. Sharma, J. Yang, R. Olivares  : DMRG
   Ulf Ekstrom                                   : XCFun DFT Library
   Mihaly Kallay                                 : mrcc  (arbitrary order and MRCC methods)
   Jiri Pittner, Ondrej Demel                    : Mk-CCSD
   Frank Weinhold                                : gennbo (NPA and NBO analysis)
   Christopher J. Cramer and Donald G. Truhlar   : smd solvation model
   Lars Goerigk                                  : TD-DFT with DH, B97 family of functionals
   V. Asgeirsson, H. Jonsson                     : NEB implementation
   FAccTs GmbH                                   : IRC, NEB, NEB-TS, DLPNO-Multilevel, CI-OPT
                                                   MM, QMMM, 2- and 3-layer-ONIOM, Crystal-QMMM,
                                                   LR-CPCM, SF, NACMEs, symmetry and pop. for TD-DFT,
                                                   nearIR, NL-DFT gradient (VV10), updates on ESD,
                                                   ML-optimized integration grids
   S Lehtola, MJT Oliveira, MAL Marques          : LibXC Library
   Liviu Ungur et al                             : ANISO software


 Your calculation uses the libint2 library for the computation of 2-el integrals
 For citations please refer to: http://libint.valeyev.net

 Your ORCA version has been built with support for libXC version: 5.1.0
 For citations please refer to: https://tddft.org/programs/libxc/

 This ORCA versions uses:
   CBLAS   interface :  Fast vector & matrix operations
   LAPACKE interface :  Fast linear algebra routines
   SCALAPACK package :  Parallel linear algebra routines
   Shared memory     :  Shared parallel matrices
   BLAS/LAPACK       :  OpenBLAS 0.3.15  USE64BITINT DYNAMIC_ARCH NO_AFFINITY SkylakeX SINGLE_THREADED
        Core in use  :  SkylakeX
   Copyright (c) 2011-2014, The OpenBLAS Project




***************************************
The coordinates will be read from file: structure_opt.xyz
***************************************


Your calculation utilizes the atom-pairwise dispersion correction
based on tight binding partial charges (D4)
Cite in your paper:
E.Caldeweyher, C.Bannwarth, S.Grimme, J.Chem.Phys., (2017), 147, 034112.
E.Caldeweyher, S.Ehlert, A.Hansen, H.Neugebauer, S.Grimme, J.Chem.Phys., (2018), in progress.
   

Your calculation utilizes the SMD solvation module
Please cite in your paper:
A.V. Marenich, C.J. Cramer, D.G. Truhlar J. Phys. Chem. B, 113, (2009), 6378 

XCFun DFT library Copyright 2009-2010 Ulf Ekstrom and contributors.
See http://admol.org/xcfun for more information.
This is free software; see the source code for copying conditions.
There is ABSOLUTELY NO WARRANTY; not even for MERCHANTABILITY or FITNESS FOR A PARTICULAR PURPOSE.
For details see the documentation.
Scientific users of this library should cite U. Ekstrom, L. Visscher, R. Bast, A. J. Thorvaldsen and K. Ruud;
J.Chem.Theor.Comp. 2010, DOI: 10.1021/ct100117s
XCFun Version 0.99 

Your calculation utilizes a Nudged-Elastic-Band implementation
 by V.Asgeirsson, C. Riplinger & H. Jonsson
Please cite in your paper:
 V. Asgeirsson et al., in prep. (2019)
   

================================================================================

----- Orbital basis set information -----
Your calculation utilizes the basis: 6-311++G**
   H, Li - Ne  : R. Krishnan, J. S. Binkley, R. Seeger and J. A. Pople, J. Chem. Phys. 72, 650 (1980).
   Na - Ar     : A. D. McLean and G. S. Chandler J. Chem. Phys. 72, 5639, (1980).
   K  - Ca     : J.-P. Blaudeau, M. P. McGrath, L. A. Curtiss and L. Radom, J. Chem. Phys. 107, 5016 (1997).
   Ga - Kr     : L. A. Curtiss, M. P. McGrath, J.-P. Blandeau, N. E. Davis, R. C. Binning and L. Radom, J. Chem. Phys. 103, 6104 (1995).
   Pol./Diff.
   H, Li - Cl  : T. Clark, J. Chandrasekhar and P. v. R. Schleyer, J. Comp. Chem. 4, 294 (1983).
   H - Ne      : M. J. Frisch, J. A. Pople and J. S. Binkley, J. Chem. Phys. 80, 3265 (1984).

----- AuxJ basis set information -----
Your calculation utilizes the auxiliary basis: def2/J
   F. Weigend, Phys. Chem. Chem. Phys. 8, 1057 (2006).

================================================================================
                                        WARNINGS
                       Please study these warnings very carefully!
================================================================================


WARNING: The environment variable RSH_COMMAND is not set!
  ===> : All Displacements for the Numerical Hessian calculation
         will be started on localhost

WARNING: Geometry Optimization
  ===> : Switching off AutoStart
         For restart on a previous wavefunction, please use MOREAD

INFO   : the flag for use of the SHARK integral package has been found!

================================================================================
                                       INPUT FILE
================================================================================
NAME = TS_search_opt_without_h.inp
|  1> !wb97x 6-311++G** D4 NEB-TS OPT NUMFREQ CPCM(WATER)
|  2> %maxcore  3500
|  3> %pal
|  4> nprocs 24
|  5> end
|  6> %cpcm
|  7> smd true
|  8> SMDsolvent "water"
|  9> end
| 10> %geom
| 11> MaxIter 1000   # allows for n optimization cycles
| 12> EnforceStrictConvergence False
| 13> end
| 14> %NEB NEB_END_XYZFILE "2f3_prod_opt.xyz" END
| 15> * XYZfile -1 1 structure_opt.xyz
| 16> 
| 17>                          ****END OF INPUT****
================================================================================


------------------------------------------------------------------------------- 
                         Nudged Elastic Band Calculation                       
------------------------------------------------------------------------------- 

Number of images (incl. end points)     ....  10
Number of intermediate images           ....  8
Number of optimized images              ....  8
Optimization of end points before NEB   ....  NO
Use existing gbw files for MO input     ....  NO
Number of atoms                         ....  18
Number of (active) degrees of freedom   ....  54
Constrained atoms                       ....  None

-----------------------------------------
  REACTANT (ANGSTROEM)
-----------------------------------------
C     -0.020247    -0.002371     1.850997 
N      1.105340    -0.191706     2.464616 
C      1.177766    -0.201700     3.800508 
C      0.073353    -0.015841     4.600666 
C     -1.123774     0.185327     3.944455 
C     -1.206651     0.197284     2.590577 
N     -2.474862     0.411313     1.941717 
O     -2.568637     0.426583     0.697366 
O     -3.520645     0.587896     2.624929 
F     -0.029792    -0.001173     0.501031 
H      2.163616    -0.365720     4.221282 
H      0.139022    -0.026829     5.680214 
H     -2.042652     0.340236     4.386295 
C     -8.737763    -0.000320     0.022335 
H     -9.116870    -0.086943    -0.999805 
H     -9.106550     0.930345     0.462175 
H     -9.107857    -0.844580     0.610622 
S     -6.934796    -0.003802     0.012021 

-----------------------------------------
  PRODUCT (ANGSTROEM)
-----------------------------------------
C     -0.006655     0.014080     1.789576 
N      1.150760    -0.163122     2.425247 
C      1.177726    -0.139964     3.759145 
C      0.054738     0.057580     4.546999 
C     -1.158972     0.233636     3.911162 
C     -1.178720     0.217442     2.525234 
N     -2.493686     0.427964     1.904940 
O     -2.584738     1.164910     0.947848 
O     -3.439094    -0.145340     2.414303 
F      3.139899     2.499865     0.919104 
H      2.152169    -0.281946     4.215772 
H      0.130494     0.071637     5.627108 
H     -2.077395     0.389730     4.465403 
C      0.049505     1.625975    -0.482258 
H     -0.875798     2.113075    -0.187252 
H      0.131238     1.624494    -1.570971 
H      0.921382     2.132605    -0.060262 
S      0.064147    -0.119619     0.009902 



----------------------
NEB settings
----------------------
Method type                             ....  climbing image
Threshold for climbing image            ....  2.00e-02 Eh/Bohr 
Free endpoints                          ....  off 
Tangent type                            ....  improved 
Number of intermediate images           ....  8 
Number of images free to move           ....  8 
Spring type for image distribution      ....  distance between adjacent images 
Spring constant                         ....  energy weighted (0.0100 -to- 0.1000) Eh/Bohr^2 
Spring force perp. to the path          ....  none 
Generation of initial path              ....  image dependent pair potential 
Initial path via TS guess               ....  off 

Minimization of RMSD: Rotation          ....  always 
Minimization of RMSD: Translation type  ....  centroid 
Center fixed to origin                  ....  true 
Remove external force                   ....  true 

Reparametrization of the path           ....  off 
Convergence thresholds:
Convergence monitored for               ....  all images
Scaling factor                          ....  10.00

Convergence parameters for regular images:
               Max(|Fp|)                ....  2.00e-02 Eh/Bohr
               RMS(Fp)                  ....  1.00e-02 Eh/Bohr

Convergence parameters for climbing image:
               Max(|F|)                 ....  2.00e-03 Eh/Bohr
               RMS(F)                   ....  1.00e-03 Eh/Bohr
Optimization method:
Method                                  ....  L-BFGS
Max. iterations                         ....  500 
Step size                               ....  1.00 
Maximum allowed step size               ....  0.10 Bohr

LBFGS parameters: 
               Memory                   ....  20 
               Initial step size        ....  0.0010 
               Estimate curvature       ....  YES 
               Reset on maxmove         ....  YES 
               Reparam. on reset        ....  NO 
Generation of  the initial path:
Minimize RMSD between reactant and product configurations     .... done
       RMSD before minimization         ....  5.2709 Bohr
       RMSD after minimization          ....  3.3233 Bohr
Performing linear interpolation         ....  done
Interpolation using                     ....  IDPP (Image Dependent Pair Potential)
IDPP-Settings:
       Remove global transl. and rot.   ...   true
       Convergence tolerance            ....  0.0100 1/Ang.^3
       Max. numer of iterations         ....    7000
       Spring constant                  ....  1.0000 1/Ang.^4
       Time step                        ....  0.0100 fs
       Max. movement per iteration      ....  0.0500 Ang.
       Full print                       ....  false 
idpp initial path generation successfully converged in 428 iterations
Displacement along initial path:             26.9763 Bohr
Writing initial trajectory to file      ....  TS_search_opt_without_h_initial_path_trj.xyz



----------------------
NEB OPTIMIZATION      
----------------------

Following output files will be written:
Energy profile during opt. written to    ....  TS_search_opt_without_h.interp
Optimization log-file                    ....  TS_search_opt_without_h.NEB.log
Current trajectory will be written to    ....  TS_search_opt_without_h_MEP_trj.xyz
       and to allxyz file                ....  TS_search_opt_without_h_MEP.allxyz
       and individual images to xyz file ....  TS_search_opt_without_h_im{NIm}.xyz
Trajectory history will be written to    ....  TS_search_opt_without_h_MEP_ALL_trj.xyz
Converged CI will be written to          ....  TS_search_opt_without_h_NEB-CI_converged.xyz
Converged TS will be written to          ....  TS_search_opt_without_h_NEB-TS_converged.xyz

Single point energy and gradient calculation of reactant and
product configurations (have to be performed only once)
Properties of fixed NEB end points:
               Reactant:
                         E               ....   -990.260231 Eh
                         RMS(F)          ....      0.017189 Eh/Bohr
                         MAX(|F|)        ....      0.069066 Eh/Bohr
      Warning: Reactant seems to be less converged than convergence tolerances.
               You might want to use free end NEB or preopt_ends true.
               Product:
                         E               ....   -990.305516 Eh
                         RMS(F)          ....      0.001230 Eh/Bohr
                         MAX(|F|)        ....      0.003361 Eh/Bohr



Starting iterations:

Optim.  Iteration  HEI  E(HEI)-E(0)  max(|Fp|)   RMS(Fp)    dS
Switch-on CI threshold               0.020000 
   LBFGS     0      5    0.193150    0.126705   0.020808  26.9763       
   LBFGS     1      5    0.173585    0.081599   0.010457  26.9588       
   LBFGS     2      5    0.169705    0.105023   0.013961  26.9494       
   LBFGS     3      5    0.164550    0.072978   0.009514  26.9465       
   LBFGS     4      5    0.164647    0.087584   0.011356  26.9513       
   LBFGS     5      5    0.165291    0.108227   0.013024  26.9665       
   LBFGS     6      5    0.155564    0.072899   0.008073  26.9666       
   LBFGS     7      5    0.157219    0.091094   0.011115  26.9731       
   LBFGS     8      5    0.156187    0.101180   0.012487  26.9949       
   LBFGS     9      5    0.152189    0.065738   0.006968  26.9994       
   LBFGS    10      5    0.152353    0.063586   0.008028  27.0103       
   LBFGS    11      5    0.153255    0.071498   0.009655  27.0355       
   LBFGS    12      5    0.155889    0.122171   0.012953  27.0504       
   LBFGS    13      5    0.149420    0.050196   0.007922  27.0567       
   LBFGS    14      5    0.147637    0.044134   0.006945  27.0825       
   LBFGS    15      5    0.147363    0.067121   0.008932  27.1029       
   LBFGS    16      5    0.147286    0.062582   0.009776  27.1339       
   LBFGS    17      5    0.146275    0.058394   0.007824  27.1485       
   LBFGS    18      5    0.146012    0.047839   0.006385  27.1615       
   LBFGS    19      5    0.145540    0.048915   0.005948  27.2083       
   LBFGS    20      5    0.146026    0.049137   0.008597  27.2528       
   LBFGS    21      5    0.145749    0.048149   0.008718  27.3050       
   LBFGS    22      5    0.144845    0.041488   0.006076  27.3247       
   LBFGS    23      5    0.144575    0.039812   0.005503  27.3466       
   LBFGS    24      5    0.144267    0.036279   0.005034  27.3962       
   LBFGS    25      5    0.144612    0.040902   0.007279  27.4419       
   LBFGS    26      5    0.144496    0.042240   0.007534  27.4910       
   LBFGS    27      5    0.143827    0.028213   0.005197  27.5072       
   LBFGS    28      5    0.143648    0.027018   0.004663  27.5251       
   LBFGS    29      5    0.143432    0.024466   0.004240  27.5678       
   LBFGS    30      5    0.143795    0.037641   0.006685  27.6085       
   LBFGS    31      5    0.143710    0.036793   0.006853  27.6531       
   LBFGS    32      5    0.143065    0.022684   0.004205  27.6650       
   LBFGS    33      5    0.142975    0.022341   0.003901  27.6811       
   LBFGS    34      5    0.142851    0.021790   0.003780  27.7248       
   LBFGS    35      5    0.142985    0.032738   0.005258  27.7619       

Possible intermediate minimum found at image(s): 1 
  => have a look at the .interp file.
  => it is often a good idea to divide the path calculation into smaller fragments. 

   LBFGS    36      5    0.143024    0.035930   0.005714  27.8109       
   LBFGS    37      5    0.142931    0.039288   0.005894  27.8654       
   LBFGS    38      5    0.142365    0.020114   0.003628  27.8782       
   LBFGS    39      5    0.142284    0.019711   0.003278  27.8954       

Image  5 will be converted to a climbing image in the next iteration (max(|Fp|) < 0.0200) 

Optim.  Iteration  CI   E(CI)-E(0)   max(|Fp|)   RMS(Fp)    dS     max(|FCI|)   RMS(FCI)
Convergence thresholds               0.020000   0.010000            0.002000    0.001000 
   LBFGS    40      5    0.142238    0.019690   0.003061  27.8979    0.006594    0.001920       
   LBFGS    41      5    0.142327    0.029481   0.004804  27.9485    0.011446    0.003971       
   LBFGS    42      5    0.142223    0.034123   0.005336  28.0145    0.011740    0.004206       
   LBFGS    43      5    0.141720    0.017455   0.003020  28.0313    0.006389    0.001980       
   LBFGS    44      5    0.141625    0.017002   0.002773  28.0515    0.005876    0.001788       
   LBFGS    45      5    0.141361    0.015351   0.002669  28.1286    0.004607    0.001940       
   LBFGS    46      5    0.141364    0.022782   0.004024  28.1816    0.008799    0.003313       
   LBFGS    47      5    0.141163    0.023580   0.003834  28.2372    0.007748    0.003308       
   LBFGS    48      5    0.140883    0.021808   0.003582  28.3204    0.015199    0.004013       
   LBFGS    49      5    0.140803    0.011444   0.002096  28.3353    0.024031    0.005379       
   LBFGS    50      5    0.140439    0.012488   0.002309  28.3514    0.009472    0.002576       
   LBFGS    51      5    0.141838    0.021330   0.002946  28.4233    0.046378    0.010455       
   LBFGS    52      5    0.143006    0.023590   0.003202  28.5100    0.061011    0.013676       
   LBFGS    53      5    0.140202    0.010310   0.001552  28.5192    0.028867    0.007285       
   LBFGS    54      5    0.139489    0.009499   0.001368  28.5250    0.006952    0.002270       
   LBFGS    55      5    0.139527    0.009057   0.001840  28.5514    0.015609    0.004248       
   LBFGS    56      5    0.140304    0.016369   0.002555  28.6052    0.034496    0.009134       
   LBFGS    57      5    0.141083    0.020872   0.003058  28.6923    0.047912    0.012593       
   LBFGS    58      5    0.138803    0.008510   0.001540  28.6927    0.028778    0.006824       
   LBFGS    59      5    0.138180    0.006982   0.001161  28.6943    0.007901    0.002447       
   LBFGS    60      5    0.138053    0.008737   0.001498  28.7031    0.011081    0.002807       
   LBFGS    61      5    0.138250    0.014324   0.002094  28.7231    0.026796    0.006078       
   LBFGS    62      5    0.138664    0.020506   0.002870  28.7790    0.044201    0.009966       
   LBFGS    63      5    0.137137    0.008835   0.001404  28.7842    0.024437    0.006144       
   LBFGS    64      5    0.136578    0.006959   0.001045  28.7875    0.008195    0.002404       
   LBFGS    65      5    0.136413    0.006560   0.001396  28.7990    0.008483    0.002929       
   LBFGS    66      5    0.136487    0.010548   0.001944  28.8198    0.020769    0.006015       

Possible intermediate minimum found at image(s): 1 
  => have a look at the .interp file.
  => it is often a good idea to divide the path calculation into smaller fragments. 

   LBFGS    67      5    0.136647    0.016776   0.002951  28.8883    0.037316    0.010671       
   LBFGS    68      5    0.134859    0.010434   0.001679  28.8820    0.024712    0.006221       
   LBFGS    69      5    0.134286    0.005455   0.001152  28.8791    0.009745    0.002964       
   LBFGS    70      5    0.134019    0.005997   0.001340  28.8767    0.009667    0.002667       
   LBFGS    71      5    0.133911    0.008120   0.001729  28.8808    0.019076    0.004674       
   LBFGS    72      5    0.133459    0.017344   0.003115  28.9338    0.038952    0.009280       
   LBFGS    73      5    0.132230    0.021654   0.002342  28.9553    0.035299    0.008665       
   LBFGS    74      5    0.131139    0.009642   0.001367  28.9648    0.010881    0.003278       
   LBFGS    75      5    0.130921    0.008609   0.001450  28.9905    0.010812    0.002960       
   LBFGS    76      5    0.130777    0.008565   0.001541  29.0160    0.014888    0.004466       
   LBFGS    77      5    0.129514    0.026173   0.002993  29.1335    0.023893    0.006308       
   LBFGS    78      5    0.129022    0.022179   0.002297  29.1189    0.018675    0.004792       
   LBFGS    79      5    0.128751    0.016459   0.001732  29.1099    0.012644    0.003495       
   LBFGS    80      5    0.128250    0.009456   0.001634  29.1024    0.010695    0.002314       
   LBFGS    81      5    0.127901    0.022537   0.002359  29.1230    0.012226    0.003485       
   LBFGS    82      5    0.127027    0.033263   0.003423  29.2008    0.019324    0.005165       
   LBFGS    83      5    0.125955    0.039739   0.004083  29.3097    0.025716    0.006433       
   LBFGS    84      5    0.125626    0.033868   0.003718  29.3532    0.023431    0.006392       
   LBFGS    85      5    0.124995    0.010178   0.001805  29.3747    0.009191    0.003083       
   LBFGS    86      5    0.124638    0.005666   0.001294  29.4231    0.007817    0.002003       
   LBFGS    87      5    0.124341    0.013077   0.001500  29.4442    0.007598    0.001957       
   LBFGS    88      5    0.122953    0.030898   0.002768  29.5350    0.011788    0.003410       
   LBFGS    89      5    0.122737    0.022179   0.002565  29.5215    0.012092    0.003513       
   LBFGS    90      5    0.122465    0.011172   0.001467  29.5152    0.006423    0.002238       
   LBFGS    91      5    0.121939    0.007122   0.001443  29.5020    0.006385    0.002099       
   LBFGS    92      5    0.121234    0.015236   0.001822  29.5083    0.006263    0.002027       
   LBFGS    93      5    0.118625    0.029519   0.003351  29.5624    0.015145    0.003546       
   LBFGS    94      5    0.118307    0.025756   0.003132  29.5825    0.011439    0.003566       
   LBFGS    95      5    0.117965    0.011988   0.001665  29.5914    0.006460    0.002356       
   LBFGS    96      5    0.117355    0.006503   0.001413  29.6121    0.005791    0.002021       
   LBFGS    97      5    0.116605    0.015106   0.001774  29.6192    0.005849    0.001993       
   LBFGS    98      5    0.113660    0.028577   0.003337  29.6482    0.009025    0.003141       
   LBFGS    99      5    0.113262    0.025985   0.003454  29.6313    0.008572    0.003322       
   LBFGS   100      5    0.112868    0.012650   0.001920  29.6225    0.006363    0.002572       
   LBFGS   101      5    0.111945    0.006583   0.001582  29.6125    0.006666    0.002285       
   LBFGS   102      5    0.110726    0.014629   0.002181  29.6226    0.006953    0.002300       
   LBFGS   103      5    0.107293    0.025863   0.003628  29.6701    0.009141    0.003003       
   LBFGS   104      5    0.106750    0.030590   0.003717  29.6827    0.007803    0.002952       
   LBFGS   105      5    0.106299    0.015943   0.002364  29.6895    0.007862    0.002746       
   LBFGS   106      5    0.104595    0.010037   0.002040  29.7170    0.008165    0.002704       
   LBFGS   107      5    0.102687    0.020471   0.003032  29.7336    0.008443    0.002794       
   LBFGS   108      5    0.097994    0.039991   0.004808  29.7847    0.009283    0.003157       
   LBFGS   109      5    0.097317    0.037673   0.004101  29.7663    0.009438    0.003022       
   LBFGS   110      5    0.096672    0.031421   0.003161  29.7566    0.009593    0.002969       
   LBFGS   111      5    0.093184    0.024269   0.003277  29.7660    0.010616    0.003187       
   LBFGS   112      5    0.089648    0.026356   0.004418  29.8112    0.011236    0.003462       
   LBFGS   113      5    0.084045    0.043389   0.006000  29.9052    0.012496    0.003839       
   LBFGS   114      5    0.083141    0.027078   0.004513  29.9107    0.012722    0.003714       
   LBFGS   115      5    0.082253    0.023112   0.003533  29.9191    0.012857    0.003655       
   LBFGS   116      5    0.077537    0.025342   0.003407  29.9814    0.013096    0.003831       
   LBFGS   117      5    0.075987    0.058678   0.004440  29.9802    0.013079    0.003824       
   LBFGS   118      5    0.074187    0.043996   0.004016  29.9836    0.013067    0.003865       
   LBFGS   119      5    0.069028    0.041803   0.003802  30.0256    0.013121    0.004073       
   LBFGS   120      5    0.067684    0.054669   0.004226  30.0535    0.013284    0.004072       
   LBFGS   121      5    0.066343    0.045970   0.003718  30.0794    0.013432    0.004097       
   LBFGS   122      5    0.060050    0.029164   0.003314  30.2016    0.013998    0.004413       
   LBFGS   123      5    0.058003    0.058577   0.004333  30.2182    0.014465    0.004481       
   LBFGS   124      5    0.055300    0.058434   0.004378  30.2457    0.015090    0.004602       
   LBFGS   125      5    0.047453    0.067904   0.004939  30.3558    0.016180    0.004869       
   LBFGS   126      5    0.046051    0.037824   0.003504  30.3764    0.016239    0.004859       
   LBFGS   127      5    0.044757    0.032572   0.003159  30.3974    0.016265    0.004860       
   LBFGS   128      5    0.035889    0.011838   0.002572  30.5663    0.015984    0.004882       
   LBFGS   129      5    0.028501    0.067619   0.006383  30.6902    0.016964    0.004974       
   LBFGS   130      5    0.023722    0.020237   0.003350  30.7681    0.016675    0.004819       
   LBFGS   131      5    0.015251    0.032267   0.004788  30.9712    0.013740    0.004654       
   LBFGS   132      5    0.012838    0.080070   0.007082  31.0270    0.012605    0.004228       
   LBFGS   133      5    0.010684    0.080417   0.007965  31.1130    0.009590    0.004115       
   LBFGS   134      5    0.010360    0.022399   0.003090  31.1035    0.008745    0.003828       
   LBFGS   135      4    0.016356    0.027776   0.002922  31.1130    0.017599    0.004901       
   LBFGS   136      4    0.020956    0.043438   0.004677  31.1898    0.067618    0.015537       
   LBFGS   137      4    0.016053    0.039014   0.003801  31.1914    0.046601    0.009699       
   LBFGS   138      4    0.014609    0.008228   0.001916  31.2021    0.018215    0.004612       
   LBFGS   139      4    0.016183    0.040078   0.003706  31.2900    0.043186    0.010433       
   LBFGS   140      4    0.016299    0.047547   0.004420  31.4035    0.044936    0.011054       
   LBFGS   141      4    0.014181    0.028246   0.002922  31.4253    0.033511    0.007025       
   LBFGS   142      4    0.013578    0.017979   0.002338  31.4520    0.022590    0.005031       
   LBFGS   143      4    0.013338    0.016010   0.002085  31.5778    0.010504    0.004048       
   LBFGS   144      4    0.014671    0.039799   0.003760  31.7707    0.028006    0.008302       
   LBFGS   145      4    0.013087    0.010338   0.001835  31.7685    0.013441    0.003853       
   LBFGS   146      4    0.012854    0.012718   0.001857  31.8756    0.013201    0.004076       
   LBFGS   147      4    0.012392    0.020893   0.002313  32.0397    0.014003    0.003774       
   LBFGS   148      4    0.012686    0.031691   0.002782  32.0422    0.027790    0.006225       
   LBFGS   149      4    0.011962    0.007650   0.001345  32.0529    0.006358    0.002443       
   LBFGS   150      4    0.012561    0.037592   0.003397  32.1282    0.034159    0.006993       
   LBFGS   151      4    0.011884    0.021427   0.002438  32.1743    0.022652    0.004910       
   LBFGS   152      4    0.011142    0.018739   0.001983  32.3053    0.009132    0.002814       
   LBFGS   153      4    0.012133    0.020898   0.002658  32.4516    0.036775    0.008393       
   LBFGS   154      4    0.010721    0.004194   0.001227  32.4734    0.007158    0.002326       
   LBFGS   155      4    0.010923    0.012808   0.001787  32.5582    0.024165    0.005172       
   LBFGS   156      4    0.010381    0.015905   0.001982  32.7200    0.020182    0.004655       
   LBFGS   157      4    0.009827    0.023272   0.002225  32.9326    0.021309    0.004704       
   LBFGS   158      4    0.009558    0.010238   0.001496  32.9307    0.017493    0.003912       
   LBFGS   159      4    0.009347    0.007156   0.001145  32.9418    0.011941    0.002944       
   LBFGS   160      4    0.008816    0.018085   0.002043  33.1246    0.008229    0.002862       
   LBFGS   161      4    0.009569    0.019379   0.002425  33.2443    0.032927    0.007321       

Possible intermediate minimum found at image(s): 2 
  => have a look at the .interp file.
  => it is often a good idea to divide the path calculation into smaller fragments. 

   LBFGS   162      4    0.008423    0.007261   0.001235  33.2707    0.011922    0.002910       
   LBFGS   163      4    0.008337    0.008138   0.001160  33.2885    0.015194    0.003099       
   LBFGS   164      4    0.008356    0.014355   0.001955  33.4528    0.014036    0.004374       
   LBFGS   165      4    0.007823    0.015249   0.001459  33.4737    0.012644    0.002874       
   LBFGS   166      4    0.007687    0.008598   0.001101  33.5021    0.007571    0.002180       
   LBFGS   167      4    0.007768    0.006821   0.001599  33.6769    0.010110    0.003800       
   LBFGS   168      4    0.007672    0.010780   0.002191  33.8975    0.013422    0.004865       
   LBFGS   169      4    0.006689    0.020921   0.001697  33.9380    0.010173    0.002239       
   LBFGS   170      4    0.006669    0.004953   0.001054  33.9833    0.006545    0.002217       
   LBFGS   171      4    0.006531    0.011102   0.001311  34.0505    0.006830    0.002361       
   LBFGS   172      4    0.006001    0.021364   0.001920  34.2901    0.009371    0.002291       
   LBFGS   173      4    0.005895    0.026474   0.001936  34.3160    0.010056    0.002151       
   LBFGS   174      4    0.005799    0.011699   0.001044  34.3379    0.004432    0.001360       
   LBFGS   175      4    0.005649    0.008911   0.001016  34.4358    0.004011    0.001407       
   LBFGS   176      4    0.005435    0.014173   0.001403  34.5648    0.006383    0.001552       
   LBFGS   177      4    0.004896    0.026006   0.002094  34.8964    0.009493    0.001890       
   LBFGS   178      4    0.004817    0.022644   0.001656  34.9166    0.006245    0.001437       
   LBFGS   179      4    0.004760    0.014891   0.001172  34.9398    0.004921    0.001241       
   LBFGS   180      4    0.004520    0.005694   0.000916  35.0756    0.004555    0.001125       
   LBFGS   181      4    0.004221    0.018700   0.001858  35.2638    0.002437    0.000961       
   LBFGS   182      4    0.003767    0.030561   0.002722  35.5821    0.002008    0.000945       
   LBFGS   183      4    0.003711    0.043432   0.003149  35.6154    0.003179    0.000974       
   LBFGS   184      4    0.003666    0.021157   0.001630  35.6429    0.002339    0.000849       
   LBFGS   185      4    0.003539    0.004546   0.000795  35.7401    0.002141    0.000783       
   LBFGS   186      4    0.003473    0.005819   0.000780  35.7768    0.002142    0.000763       
   LBFGS   187      4    0.003019    0.011349   0.001550  36.0870    0.001995    0.000815       

                                .--------------------.
          ----------------------| CI-NEB convergence |-------------------------
          Item                value                   Tolerance       Converged
          ---------------------------------------------------------------------
          RMS(Fp)             0.0015496014            0.0100000000      YES
          MAX(|Fp|)           0.0113493516            0.0200000000      YES
          RMS(FCI)            0.0008148748            0.0010000000      YES
          MAX(|FCI|)          0.0019954564            0.0020000000      YES
          ---------------------------------------------------------------------

The elastic band and climbing image have converged successfully to a MEP in 187 iterations!


                    *********************H U R R A Y*********************
                    ***        THE NEB OPTIMIZATION HAS CONVERGED     ***
                    *****************************************************



---------------------------------------------------------------
                         PATH SUMMARY              
---------------------------------------------------------------
All forces in Eh/Bohr.

Image Dist.(Ang.)    E(Eh)   dE(kcal/mol)  max(|Fp|)  RMS(Fp)
  0     0.000    -990.26023      0.00       0.06872   0.01719
  1     3.837    -990.27400     -8.64       0.00040   0.00012
  2     7.676    -990.27566     -9.68       0.00096   0.00034
  3    11.561    -990.26656     -3.97       0.01130   0.00293
  4    11.968    -990.25721      1.89       0.00202   0.00081 <= CI
  5    12.126    -990.26048     -0.16       0.01135   0.00248
  6    12.456    -990.27412     -8.71       0.00580   0.00233
  7    14.196    -990.29623    -22.59       0.00181   0.00097
  8    16.478    -990.29530    -22.01       0.00186   0.00064
  9    19.096    -990.30552    -28.42       0.00331   0.00122

Straight line distance between images along the path:
        D( 0- 1) =   3.8374 Ang.
        D( 1- 2) =   3.8386 Ang.
        D( 2- 3) =   3.8848 Ang.
        D( 3- 4) =   0.4069 Ang.
        D( 4- 5) =   0.1588 Ang.
        D( 5- 6) =   0.3298 Ang.
        D( 6- 7) =   1.7394 Ang.
        D( 7- 8) =   2.2820 Ang.
        D( 8- 9) =   2.6187 Ang.

---------------------------------------------------------------
               INFORMATION ABOUT SADDLE POINT     
---------------------------------------------------------------

Climbing image                            ....  4 
Energy                                    ....  -990.25721186 Eh
Max. abs. force                           ....  1.9955e-03 Eh/Bohr

-----------------------------------------
  SADDLE POINT (ANGSTROEM)
-----------------------------------------
C      0.575866    -0.296340    -0.580941 
N      1.541124    -1.212790    -0.498116 
C      2.382687    -1.184652     0.537372 
C      2.371294    -0.220979     1.536873 
C      1.327536     0.692581     1.514452 
C      0.434797     0.663190     0.466231 
N     -0.715205     1.521935     0.529510 
O     -1.193639     1.948265    -0.506093 
O     -1.184928     1.776938     1.631028 
F      0.341590     0.105251    -1.872731 
H      3.143641    -1.960470     0.548413 
H      3.145657    -0.184321     2.293953 
H      1.209533     1.444639     2.287262 
C     -2.749803    -0.557117    -1.663486 
H     -2.611215     0.524861    -1.623116 
H     -3.783575    -0.764812    -1.370987 
H     -2.629266    -0.873882    -2.703305 
S     -1.606094    -1.422298    -0.526320 

-----------------------------------------
  FORCES (Eh/Bohr)
-----------------------------------------
C     -0.000522     0.000796    -0.001146 
N      0.000407     0.001171    -0.000822 
C     -0.000457     0.000792    -0.000313 
C     -0.000282    -0.001376     0.000184 
C      0.000170    -0.000173     0.000900 
C      0.000627     0.000118    -0.000582 
N     -0.000075     0.001698    -0.000146 
O     -0.000108     0.000593    -0.001237 
O      0.001101     0.001995     0.000768 
F     -0.000855     0.000689     0.000412 
H     -0.000296    -0.000204    -0.000937 
H     -0.001691    -0.001561     0.000236 
H     -0.000327    -0.000614     0.000483 
C      0.000448    -0.000833     0.000311 
H      0.000406    -0.000822     0.000259 
H      0.000386    -0.000990    -0.000190 
H      0.001328    -0.001046     0.000538 
S      0.000045    -0.000360     0.001218 

-----------------------------------------
  UNIT TANGENT
-----------------------------------------
C     -0.513421    -0.278818     0.071273 
N     -0.232999    -0.177141     0.081385 
C     -0.108123    -0.010199    -0.044533 
C     -0.036123     0.000845    -0.023030 
C     -0.020885     0.008266    -0.026604 
C     -0.095527    -0.019054     0.015337 
N      0.005480     0.009081     0.072767 
O     -0.062943    -0.016888     0.031696 
O      0.003382     0.091596     0.047730 
F      0.119128     0.101312    -0.087437 
H     -0.046863     0.027737    -0.061060 
H      0.004358     0.008975    -0.056596 
H      0.019779     0.035760    -0.042221 
C      0.160569     0.026185    -0.002684 
H      0.012156     0.034431    -0.021402 
H      0.204845    -0.109194     0.139648 
H      0.059691    -0.007069     0.001433 
S      0.527495     0.274175    -0.095703 
 => Unit tangent is an approximation to the TS mode at the saddle point

Next a TS optimization is performed on the CI from the NEB run.

         *************************************************************
         *                       TS OPTIMIZATION                     *
         *************************************************************


Following output files will be written:
Converged TS will be written to          ....  TS_search_opt_without_h_NEB-TS_converged.xyz
                                         ....  TS_search_opt_without_h.xyz
Current trajectory will be written to    ....  TS_search_opt_without_h_trj.xyz
Initial Hessian will be stored in        ....  TS_search_opt_without_h.appr.hess
Geometry optimization settings:
Update method            Update   .... Bofill
Choice of coordinates    CoordSys .... Z-matrix Internals
Initial Hessian          InHess   .... Read

Convergence Tolerances:
Energy Change            TolE     ....  5.0000e-06 Eh
Max. Gradient            TolMAXG  ....  3.0000e-04 Eh/bohr
RMS Gradient             TolRMSG  ....  1.0000e-04 Eh/bohr
Max. Displacement        TolMAXD  ....  4.0000e-03 bohr
RMS Displacement         TolRMSD  ....  2.0000e-03 bohr
Strict Convergence                ....  False
------------------------------------------------------------------------------
                        ORCA OPTIMIZATION COORDINATE SETUP
------------------------------------------------------------------------------

The optimization will be done in new redundant internal coordinates
Making redundant internal coordinates   ...  (new redundants) done
Following TS mode number                ...     0
TS-active-atoms for coordinate setup... 0 17 
Evaluating the initial hessian          ... (Reading Exact Hessian)...  
InHessName: TS_search_opt_without_h.appr.hess	The file <TS_search_opt_without_h.appr.hess> is opened as a .hess file
done
done
Diagonalizing the Hessian               .... done
Dimension of the hessian                .... 113
Lowest eigenvalues of the non projected Hessian:
 -0.011333779 -0.000000000 -0.000000000 -0.000000000 -0.000000000
done
Evaluating the coordinates              ...  done
Calculating the B-matrix                .... done
Calculating the G-matrix                .... done
Diagonalizing the G-matrix              .... done
The first mode is                       ....   65
The number of degrees of freedom        ....   48

    -----------------------------------------------------------------
                    Redundant Internal Coordinates


    -----------------------------------------------------------------
         Definition                    Initial Value    d2E/dq (diagonal element)
    -----------------------------------------------------------------
      1. B(N   1,C   0)                  1.3336         0.351811   
      2. B(C   2,C   0)                  2.3031         0.118967   
      3. B(C   2,N   1)                  1.3346         0.397493   
      4. B(C   3,C   2)                  1.3885         0.513369   
      5. B(C   3,C   0)                  2.7775         0.095000   
      6. B(C   4,C   0)                  2.4359         0.108250   
      7. B(C   4,C   3)                  1.3873         0.537927   
      8. B(C   5,C   4)                  1.3772         0.388156   
      9. B(C   5,C   0)                  1.4273         0.207076   
     10. B(N   6,C   0)                  2.4912         0.084270   
     11. B(N   6,C   5)                  1.4366         0.279315   
     12. B(O   7,C   0)                  2.8592         0.064425   
     13. B(O   7,N   6)                  1.2178         0.758894   
     14. B(O   8,N   6)                  1.2243         0.922209   
     15. B(F   9,C   0)                  1.3729         0.415427   
     16. B(H  10,C   2)                  1.0868         0.365461   
     17. B(H  11,C   3)                  1.0836         0.369052   
     18. B(H  12,C   4)                  1.0848         0.367098   
     19. B(H  14,C  13)                  1.0916         0.253017   
     20. B(H  14,O   7)                  2.2986         0.022924   
     21. B(H  15,C  13)                  1.0942         0.276551   
     22. B(H  16,C  13)                  1.0937         0.271823   
     23. B(S  17,H  14)                  2.4504         0.061296   
     24. B(S  17,O   7)                  3.3958         0.024774   
     25. B(S  17,N   6)                  3.2522         0.022158   
     26. B(S  17,C   5)                  3.0822         0.046224   
     27. B(S  17,N   1)                  3.1543         0.072791   
     28. B(S  17,F   9)                  2.8177         0.043962   
     29. B(S  17,C   0)                  2.4560         0.007753   
     30. B(S  17,H  15)                  2.4264         0.071883   
     31. B(S  17,C  13)                  1.8302         0.113602   
     32. B(S  17,H  16)                  2.4672         0.062508   
     33. A(N   1,C   0,C   5)          119.2066         0.060620   
     34. A(N   1,C   0,S  17)          109.0635         0.018964   
     35. A(C   5,C   0,S  17)          101.7758         0.010662   
     36. A(C   5,C   0,F   9)          118.4775         0.035266   
     37. A(N   1,C   0,F   9)          112.5173         0.040151   
     38. A(F   9,C   0,S  17)           90.1963         0.014289   
     39. A(C   0,N   1,C   2)          119.3469         0.158937   
     40. A(N   1,C   2,C   3)          124.6091         0.102763   
     41. A(C   3,C   2,H  10)          119.5977         0.205048   
     42. A(N   1,C   2,H  10)          115.7437         0.204501   
     43. A(C   2,C   3,C   4)          116.8464         0.067021   
     44. A(C   2,C   3,H  11)          121.3709         0.194413   
     45. A(C   4,C   3,H  11)          121.7820         0.194479   
     46. A(C   3,C   4,C   5)          119.0760         0.080645   
     47. A(C   5,C   4,H  12)          119.1123         0.198302   
     48. A(C   3,C   4,H  12)          121.7947         0.198100   
     49. A(C   0,C   5,N   6)          120.8824         0.059993   
     50. A(C   0,C   5,C   4)          120.5777         0.110157   
     51. A(C   4,C   5,N   6)          118.2044         0.141819   
     52. A(O   7,N   6,O   8)          122.7806         0.254924   
     53. A(C   5,N   6,O   8)          118.1142         0.245893   
     54. A(C   5,N   6,O   7)          119.0956         0.080178   
     55. A(N   6,O   7,H  14)          116.0240         0.017360   
     56. A(C   0,F   9,S  17)           60.6448         0.004790   
     57. A(H  16,C  13,S  17)          112.6404         0.069203   
     58. A(H  15,C  13,S  17)          109.5454         0.066843   
     59. A(H  14,C  13,S  17)          111.4844         0.064340   
     60. A(H  15,C  13,H  16)          107.6556         0.065599   
     61. A(H  14,C  13,H  16)          107.9546         0.077444   
     62. A(H  14,C  13,H  15)          107.3494         0.072895   
     63. A(O   7,H  14,C  13)          135.2428         0.038053   
     64. A(C   0,S  17,C  13)          108.9439         0.036888   
     65. A(C   0,S  17,F   9)           29.1589         0.016910   
     66. A(F   9,S  17,C  13)           83.0379         0.040809   
     67. D(C   2,N   1,C   0,C   5)     -2.3155         0.012990   
     68. D(C   2,N   1,C   0,F   9)    143.0810         0.013297   
     69. D(C   2,N   1,C   0,S  17)   -118.4551         0.015535   
     70. D(C   3,C   2,N   1,C   0)     -2.8186         0.012193   
     71. D(H  10,C   2,N   1,C   0)    179.7630         0.013449   
     72. D(C   4,C   3,C   2,H  10)   -176.1415         0.013389   
     73. D(H  11,C   3,C   2,H  10)      4.1625         0.014499   
     74. D(H  11,C   3,C   2,N   1)   -173.1632         0.011575   
     75. D(C   4,C   3,C   2,N   1)      6.5328         0.011764   
     76. D(H  12,C   4,C   3,H  11)     -3.7357         0.012851   
     77. D(H  12,C   4,C   3,C   2)    176.5697         0.010946   
     78. D(C   5,C   4,C   3,C   2)     -4.9453         0.009317   
     79. D(C   5,C   4,C   3,H  11)    174.7494         0.010431   
     80. D(C   4,C   5,C   0,F   9)   -139.7957         0.011720   
     81. D(C   4,C   5,C   0,N   1)      3.5624         0.012683   
     82. D(C   0,C   5,C   4,C   3)      0.2585         0.009353   
     83. D(C   0,C   5,C   4,H  12)    178.7848         0.010508   
     84. D(N   6,C   5,C   0,S  17)    -49.7486         0.012748   
     85. D(N   6,C   5,C   0,F   9)     46.9742         0.013117   
     86. D(N   6,C   5,C   4,C   3)    173.6665         0.010257   
     87. D(N   6,C   5,C   4,H  12)     -7.8073         0.011279   
     88. D(N   6,C   5,C   0,N   1)   -169.6677         0.015087   
     89. D(C   4,C   5,C   0,S  17)    123.4815         0.010325   
     90. D(O   8,N   6,C   5,C   4)    -31.4301         0.015186   
     91. D(O   8,N   6,C   5,C   0)    141.9569         0.016031   
     92. D(O   7,N   6,C   5,C   4)    149.6632         0.016996   
     93. D(O   7,N   6,C   5,C   0)    -36.9498         0.017371   
     94. D(H  14,O   7,N   6,O   8)    -96.9973         0.030791   
     95. D(H  14,O   7,N   6,C   5)     81.8557         0.026909   
     96. D(S  17,F   9,C   0,C   5)   -103.5348         0.012377   
     97. D(S  17,F   9,C   0,N   1)    110.7931         0.023851   
     98. D(O   7,H  14,C  13,S  17)      2.2642         0.030492   
     99. D(O   7,H  14,C  13,H  16)   -121.9584         0.059000   
    100. D(O   7,H  14,C  13,H  15)    122.2402         0.059486   
    101. D(C  13,H  14,O   7,N   6)    -24.1758         0.032211   
    102. D(F   9,S  17,C  13,H  15)   -171.1121         0.031677   
    103. D(F   9,S  17,C  13,H  14)    -52.4404         0.025157   
    104. D(C   0,S  17,C  13,H  16)     82.6785         0.029092   
    105. D(C   0,S  17,C  13,H  15)   -157.5341         0.030253   
    106. D(C   0,S  17,C  13,H  14)    -38.8623         0.020615   
    107. D(C  13,S  17,F   9,C   0)    152.8873         0.017041   
    108. D(F   9,S  17,C   0,C   5)    119.1949         0.037695   
    109. D(F   9,S  17,C   0,N   1)   -113.9771         0.045537   
    110. D(C  13,S  17,C   0,F   9)    -28.5736         0.018372   
    111. D(C  13,S  17,C   0,C   5)     90.6212         0.030069   
    112. D(F   9,S  17,C  13,H  16)     69.1004         0.031764   
    113. D(C  13,S  17,C   0,N   1)   -142.5507         0.041047   
    -----------------------------------------------------------------

Number of atoms                         .... 18
Number of degrees of freedom            .... 113

         *************************************************************
         *                GEOMETRY OPTIMIZATION CYCLE   1            *
         *************************************************************


           ************************************************************
           *        Program running with 24 parallel MPI-processes    *
           *              working on a common directory               *
           ************************************************************
------------------------------------------------------------------------------
                           ORCA GTO INTEGRAL CALCULATION
                           -- RI-GTO INTEGRALS CHOSEN --
------------------------------------------------------------------------------
------------------------------------------------------------------------------
                   ___                                                        
                  /   \      - P O W E R E D   B Y -                         
                 /     \                                                     
                 |  |  |   _    _      __       _____    __    __             
                 |  |  |  | |  | |    /  \     |  _  \  |  |  /  |          
                  \  \/   | |  | |   /    \    | | | |  |  | /  /          
                 / \  \   | |__| |  /  /\  \   | |_| |  |  |/  /          
                |  |  |   |  __  | /  /__\  \  |    /   |      \           
                |  |  |   | |  | | |   __   |  |    \   |  |\   \          
                \     /   | |  | | |  |  |  |  | |\  \  |  | \   \       
                 \___/    |_|  |_| |__|  |__|  |_| \__\ |__|  \__/        
                                                                              
                      - O R C A' S   B I G   F R I E N D -                    
                                      &                                       
                       - I N T E G R A L  F E E D E R -                       
                                                                              
 v1 FN, 2020, v2 2021                                                         
------------------------------------------------------------------------------


Reading SHARK input file TS_search_opt_without_h.SHARKINP.tmp ... ok
----------------------
SHARK INTEGRAL PACKAGE
----------------------

Number of atoms                             ...     18
Number of basis functions                   ...    314
Number of shells                            ...    154
Maximum angular momentum                    ...      2
Integral batch strategy                     ... SHARK/LIBINT Hybrid
RI-J (if used) integral strategy            ... SPLIT-RIJ (Revised 2003 algorithm where possible)
Printlevel                                  ...      1
Contraction scheme used                     ... SEGMENTED contraction
Coulomb Range Separation                    ... NOT USED
Exchange Range Separation                   ... Long Range
   Mu parameter                             ...  0.300000
   Scaling (regular/separated)              ...  0.157706  0.842294
Finite Nucleus Model                        ... NOT USED
Auxiliary Coulomb fitting basis             ... AVAILABLE
   # of basis functions in Aux-J            ...    656
   # of shells in Aux-J                     ...    212
   Maximum angular momentum in Aux-J        ...      4
Auxiliary J/K fitting basis                 ... NOT available
Auxiliary Correlation fitting basis         ... NOT available
Auxiliary 'external' fitting basis          ... NOT available
Integral threshold                          ...     2.500000e-11
Primitive cut-off                           ...     2.500000e-12
Primitive pair pre-selection threshold      ...     2.500000e-12

Calculating pre-screening integrals         ... done (  0.1 sec) Dimension = 154
Organizing shell pair data                  ... done (  0.1 sec)
Shell pair information
Total number of shell pairs                 ...     11935
Shell pairs after pre-screening             ...     10371
Total number of primitive shell pairs       ...     38500
Primitive shell pairs kept                  ...     23729
          la=0 lb=0:   3167 shell pairs
          la=1 lb=0:   4227 shell pairs
          la=1 lb=1:   1441 shell pairs
          la=2 lb=0:    861 shell pairs
          la=2 lb=1:    603 shell pairs
          la=2 lb=2:     72 shell pairs

Calculating one electron integrals          ... done (  0.0 sec)
Calculating RI/J V-Matrix + Cholesky decomp.... done (  0.1 sec)
Calculating Nuclear repulsion               ... done (  0.0 sec) ENN=    820.649586750770 Eh

SHARK setup successfully completed in   0.5 seconds

Maximum memory used throughout the entire GTOINT-calculation: 17.2 MB


           ************************************************************
           *        Program running with 24 parallel MPI-processes    *
           *              working on a common directory               *
           ************************************************************
-------------------------------------------------------------------------------
                                 ORCA SCF
-------------------------------------------------------------------------------

------------
SCF SETTINGS
------------
Hamiltonian:
 Density Functional     Method          .... DFT(GTOs)
 Exchange Functional    Exchange        .... WB97X
 Correlation Functional Correlation     .... WB97X
 Gradients option       PostSCFGGA      .... off
 Hybrid DFT is turned on
   Fraction HF Exchange ScalHFX         ....  0.157706
   Scaling of DF-GGA-X  ScalDFX         ....  0.000000
   Scaling of DF-GGA-C  ScalDFC         ....  1.000000
   Scaling of DF-LDA-C  ScalLDAC        ....  1.000000
   Perturbative correction              ....  0.000000
   Density functional embedding theory  .... OFF
 Long-range corrected/Screened/Range-Separated Hybrid DFT is turned on
   Amount of maximum screened exact exchange              ....  0.842294
   Range separation parameter mu (erf(mu*r12)/r12)        ....  0.300000
 RI-approximation to the Coulomb term is turned on
   Number of AuxJ basis functions       .... 656
   RIJ-COSX (HFX calculated with COS-X)).... on


General Settings:
 Integral files         IntName         .... TS_search_opt_without_h
 Hartree-Fock type      HFTyp           .... RHF
 Total Charge           Charge          ....   -1
 Multiplicity           Mult            ....    1
 Number of Electrons    NEL             ....   98
 Basis Dimension        Dim             ....  314
 Nuclear Repulsion      ENuc            ....    820.6495867508 Eh

Convergence Acceleration:
 DIIS                   CNVDIIS         .... on
   Start iteration      DIISMaxIt       ....    12
   Startup error        DIISStart       ....  0.200000
   # of expansion vecs  DIISMaxEq       ....     5
   Bias factor          DIISBfac        ....   1.050
   Max. coefficient     DIISMaxC        ....  10.000
 Trust-Rad. Augm. Hess. CNVTRAH         .... auto
   Auto Start mean grad. ratio tolernc. ....  1.125000
   Auto Start start iteration           ....     1
   Auto Start num. interpolation iter.  ....    10
   Max. Number of Micro iterations      ....    16
   Max. Number of Macro iterations      .... Maxiter - #DIIS iter
   Number of Davidson start vectors     ....     2
   Converg. threshold I  (grad. norm)   ....   1.000e-05
   Converg. threshold II (energy diff.) ....   1.000e-08
   Grad. Scal. Fac. for Micro threshold ....   0.100
   Minimum threshold for Micro iter.    ....   0.010
   NR start threshold (gradient norm)   ....   0.001
   Initial trust radius                 ....   0.400
   Minimum AH scaling param. (alpha)    ....   1.000
   Maximum AH scaling param. (alpha)    .... 1000.000
   Orbital update algorithm             .... Taylor
   White noise on init. David. guess    .... on
   Maximum white noise                  ....   0.010
   Quad. conv. algorithm                .... NR
 SOSCF                  CNVSOSCF        .... on
   Start iteration      SOSCFMaxIt      ....   150
   Startup grad/error   SOSCFStart      ....  0.003300
 Level Shifting         CNVShift        .... on
   Level shift para.    LevelShift      ....    0.2500
   Turn off err/grad.   ShiftErr        ....    0.0010
 Zerner damping         CNVZerner       .... off
 Static damping         CNVDamp         .... on
   Fraction old density DampFac         ....    0.7000
   Max. Damping (<1)    DampMax         ....    0.9800
   Min. Damping (>=0)   DampMin         ....    0.0000
   Turn off err/grad.   DampErr         ....    0.1000
 Fernandez-Rico         CNVRico         .... off

SCF Procedure:
 Maximum # iterations   MaxIter         ....   125
 SCF integral mode      SCFMode         .... Direct
   Integral package                     .... SHARK and LIBINT hybrid scheme
 Reset frequency        DirectResetFreq ....    20
 Integral Threshold     Thresh          ....  2.500e-11 Eh
 Primitive CutOff       TCut            ....  2.500e-12 Eh

Convergence Tolerance:
 Convergence Check Mode ConvCheckMode   .... Total+1el-Energy
 Convergence forced     ConvForced      .... 0
 Energy Change          TolE            ....  1.000e-08 Eh
 1-El. energy change                    ....  1.000e-05 Eh
 Orbital Gradient       TolG            ....  1.000e-05
 Orbital Rotation angle TolX            ....  1.000e-05
 DIIS Error             TolErr          ....  5.000e-07


Diagonalization of the overlap matrix:
Smallest eigenvalue                        ... 2.831e-06
Time for diagonalization                   ...    0.022 sec
Threshold for overlap eigenvalues          ... 1.000e-08
Number of eigenvalues below threshold      ... 0
Time for construction of square roots      ...    0.038 sec
Total time needed                          ...    0.062 sec

---------------------
INITIAL GUESS: MOREAD
---------------------
Guess MOs are being read from file: TS_search_opt_without_h.gbw
Input Geometry matches current geometry (good)
Input basis set matches current basis set (good)
MOs were renormalized
MOs were reorthogonalized (Cholesky)
                      ------------------
                      INITIAL GUESS DONE (   0.0 sec)
                      ------------------
-------------------
DFT GRID GENERATION
-------------------

General Integration Accuracy     IntAcc      ... 4.388
Radial Grid Type                 RadialGrid  ... OptM3 with GC (2021)
Angular Grid (max. ang.)         AngularGrid ... 4 (Lebedev-302)
Angular grid pruning method      GridPruning ... 4 (adaptive)
Weight generation scheme         WeightScheme... Becke
Basis function cutoff            BFCut       ... 1.0000e-11
Integration weight cutoff        WCut        ... 1.0000e-14
Angular grids for H and He will be reduced by one unit
Partially contracted basis set               ... off
Rotationally invariant grid construction     ... off

Total number of grid points                  ...    97639
Total number of batches                      ...     1535
Average number of points per batch           ...       63
Average number of grid points per atom       ...     5424
Time for grid setup =    0.636 sec

--------------------
COSX GRID GENERATION
--------------------

GRIDX 1
-------
General Integration Accuracy     IntAcc      ... 3.816
Radial Grid Type                 RadialGrid  ... OptM3 with GC (2021)
Angular Grid (max. ang.)         AngularGrid ... 1 (Lebedev-50)
Angular grid pruning method      GridPruning ... 4 (adaptive)
Weight generation scheme         WeightScheme... Becke
Basis function cutoff            BFCut       ... 1.0000e-11
Integration weight cutoff        WCut        ... 1.0000e-14
Angular grids for H and He will be reduced by one unit
Partially contracted basis set               ... on
Rotationally invariant grid construction     ... off

Total number of grid points                  ...    12135
Total number of batches                      ...      198
Average number of points per batch           ...       61
Average number of grid points per atom       ...      674
UseSFitting                                  ... on

GRIDX 2
-------
General Integration Accuracy     IntAcc      ... 4.020
Radial Grid Type                 RadialGrid  ... OptM3 with GC (2021)
Angular Grid (max. ang.)         AngularGrid ... 2 (Lebedev-110)
Angular grid pruning method      GridPruning ... 4 (adaptive)
Weight generation scheme         WeightScheme... Becke
Basis function cutoff            BFCut       ... 1.0000e-11
Integration weight cutoff        WCut        ... 1.0000e-14
Angular grids for H and He will be reduced by one unit
Partially contracted basis set               ... on
Rotationally invariant grid construction     ... off

Total number of grid points                  ...    30510
Total number of batches                      ...      487
Average number of points per batch           ...       62
Average number of grid points per atom       ...     1695
UseSFitting                                  ... on

GRIDX 3
-------
General Integration Accuracy     IntAcc      ... 4.338
Radial Grid Type                 RadialGrid  ... OptM3 with GC (2021)
Angular Grid (max. ang.)         AngularGrid ... 3 (Lebedev-194)
Angular grid pruning method      GridPruning ... 4 (adaptive)
Weight generation scheme         WeightScheme... Becke
Basis function cutoff            BFCut       ... 1.0000e-11
Integration weight cutoff        WCut        ... 1.0000e-14
Angular grids for H and He will be reduced by one unit
Partially contracted basis set               ... on
Rotationally invariant grid construction     ... off

Total number of grid points                  ...    67723
Total number of batches                      ...     1070
Average number of points per batch           ...       63
Average number of grid points per atom       ...     3762
UseSFitting                                  ... on

Time for X-Grid setup             =    1.119 sec


--------------------
CPCM SOLVATION MODEL
--------------------
CPCM parameters:
  Epsilon                                         ...      78.3550
  Refrac                                          ...       1.3328
  Rsolv                                           ...       1.3000
  Surface type                                    ... GAUSSIAN VDW
  Epsilon function type                           ...         CPCM
Solvent:                                     ... WATER
SMD-CDS solvent descriptors:
  Soln                                       ...    1.3328
  Soln25                                     ...    1.3323
  Sola                                       ...    0.0000
  Solb                                       ...    0.0000
  Solg                                       ...    0.0000
  Solc                                       ...    0.0000
  Solh                                       ...    0.0000
Radii:
 Radius for C  used is    3.4960 Bohr (=   1.8500 Ang.)
 Radius for N  used is    3.5716 Bohr (=   1.8900 Ang.)
 Radius for O  used is    2.8724 Bohr (=   1.5200 Ang.)
 Radius for F  used is    3.2692 Bohr (=   1.7300 Ang.)
 Radius for H  used is    2.2677 Bohr (=   1.2000 Ang.)
 Radius for S  used is    4.7054 Bohr (=   2.4900 Ang.)
Calculating surface                               ...        done! (  0.0s)
GEPOL surface points                              ...         1070
GEPOL Volume                                      ...    1269.2318
GEPOL Surface-area                                ...     704.7766
Calculating surface distance matrix               ...        done! (  0.0s)
Performing Cholesky decomposition & store         ...        done! (  0.1s)
Overall time for CPCM initialization              ...                 0.1s
--------------
SCF ITERATIONS
--------------
ITER       Energy         Delta-E        Max-DP      RMS-DP      [F,P]     Damp
               ***  Starting incremental Fock matrix formation  ***
                      *** Initiating the SOSCF procedure ***
                      *** Re-Reading the Fockian *** 
                      *** Removing any level shift *** 
ITER      Energy       Delta-E        Grad      Rot      Max-DP    RMS-DP
  0   -990.26178562 -990.2617856170  0.000002  0.000002  0.011287  0.000054
               *** Restarting incremental Fock matrix formation ***
                  ***Gradient check signals convergence***
              ***Rediagonalizing the Fockian in SOSCF/NRSCF***

               *****************************************************
               *                     SUCCESS                       *
               *           SCF CONVERGED AFTER   1 CYCLES          *
               *****************************************************

Old exchange energy                            =    -28.485774925 Eh
New exchange energy                            =    -28.485787461 Eh
Exchange energy change after final integration =     -0.000012536 Eh
Total energy after final integration           =   -990.261798153 Eh
Final COS-X integration done in                =     6.569 sec

SMD CDS free energy correction energy :                 5.12471     Kcal/mol
Total Energy after SMD CDS correction =              -990.253631415 Eh

----------------
TOTAL SCF ENERGY
----------------

Total Energy       :         -990.25363141 Eh          -26946.17123 eV

Components:
Nuclear Repulsion  :          820.64958675 Eh           22331.01054 eV
Electronic Energy  :        -1810.90321817 Eh          -49277.18177 eV
One Electron Energy:        -3005.87763837 Eh          -81794.08887 eV
Two Electron Energy:         1194.97442021 Eh           32516.90710 eV
Max COSX asymmetry :            0.00000429 Eh               0.00012 eV
CPCM Dielectric    :           -0.10137434 Eh              -2.75854 eV
SMD CDS (Gcds)     :            0.00816674 Eh               0.22223 eV

Virial components:
Potential Energy   :        -1978.37367683 Eh          -53834.28463 eV
Kinetic Energy     :          988.12004541 Eh           26888.11340 eV
Virial Ratio       :            2.00215924


DFT components:
N(Alpha)           :       48.999972698070 electrons
N(Beta)            :       48.999972698070 electrons
N(Total)           :       97.999945396140 electrons
E(XC)              :      -73.550032528200 Eh       
DFET-embed. en.    :        0.000000000000 Eh       
CPCM Solvation Model Properties:
Surface-charge          :            0.95254855
Charge-correction       :           -0.00578425 Eh              -0.15740 eV
Free-energy (cav+disp)  :            0.00816674 Eh               0.22223 eV

---------------
SCF CONVERGENCE
---------------

  Last Energy change         ...   -3.7517e-10  Tolerance :   1.0000e-08
  Last MAX-Density change    ...    4.4409e-15  Tolerance :   1.0000e-07
  Last RMS-Density change    ...    5.0045e-17  Tolerance :   5.0000e-09
  Last Orbital Gradient      ...    1.0552e-06  Tolerance :   1.0000e-05
  Last Orbital Rotation      ...    3.6666e-06  Tolerance :   1.0000e-05

             **** THE GBW FILE WAS UPDATED (TS_search_opt_without_h.gbw) ****
             **** DENSITY TS_search_opt_without_h.scfp WAS UPDATED ****
             **** ENERGY FILE WAS UPDATED (TS_search_opt_without_h.en.tmp) ****
             **** THE GBW FILE WAS UPDATED (TS_search_opt_without_h.gbw) ****
             **** DENSITY TS_search_opt_without_h.scfp WAS UPDATED ****
----------------
ORBITAL ENERGIES
----------------

  NO   OCC          E(Eh)            E(eV) 
   0   2.0000     -88.750926     -2415.0355 
   1   2.0000     -24.742921      -673.2891 
   2   2.0000     -19.239060      -523.5214 
   3   2.0000     -19.237011      -523.4657 
   4   2.0000     -14.649745      -398.6398 
   5   2.0000     -14.392786      -391.6476 
   6   2.0000     -10.411702      -283.3168 
   7   2.0000     -10.313126      -280.6344 
   8   2.0000     -10.307887      -280.4919 
   9   2.0000     -10.292332      -280.0686 
  10   2.0000     -10.257429      -279.1188 
  11   2.0000     -10.245469      -278.7934 
  12   2.0000      -7.946814      -216.2438 
  13   2.0000      -5.909757      -160.8127 
  14   2.0000      -5.903888      -160.6530 
  15   2.0000      -5.901264      -160.5816 
  16   2.0000      -1.385240       -37.6943 
  17   2.0000      -1.347367       -36.6637 
  18   2.0000      -1.200259       -32.6607 
  19   2.0000      -1.091117       -29.6908 
  20   2.0000      -0.985329       -26.8122 
  21   2.0000      -0.920678       -25.0529 
  22   2.0000      -0.849595       -23.1186 
  23   2.0000      -0.841441       -22.8968 
  24   2.0000      -0.772686       -21.0259 
  25   2.0000      -0.741852       -20.1868 
  26   2.0000      -0.695814       -18.9341 
  27   2.0000      -0.691206       -18.8087 
  28   2.0000      -0.675708       -18.3869 
  29   2.0000      -0.659462       -17.9449 
  30   2.0000      -0.652651       -17.7595 
  31   2.0000      -0.618448       -16.8288 
  32   2.0000      -0.594182       -16.1685 
  33   2.0000      -0.585723       -15.9383 
  34   2.0000      -0.536242       -14.5919 
  35   2.0000      -0.519394       -14.1334 
  36   2.0000      -0.504128       -13.7180 
  37   2.0000      -0.501235       -13.6393 
  38   2.0000      -0.499152       -13.5826 
  39   2.0000      -0.490493       -13.3470 
  40   2.0000      -0.444582       -12.0977 
  41   2.0000      -0.429714       -11.6931 
  42   2.0000      -0.424258       -11.5447 
  43   2.0000      -0.418361       -11.3842 
  44   2.0000      -0.395448       -10.7607 
  45   2.0000      -0.385892       -10.5006 
  46   2.0000      -0.354596        -9.6491 
  47   2.0000      -0.281891        -7.6707 
  48   2.0000      -0.268281        -7.3003 
  49   0.0000      -0.016735        -0.4554 
  50   0.0000       0.049712         1.3527 
  51   0.0000       0.056305         1.5321 
  52   0.0000       0.063702         1.7334 
  53   0.0000       0.066843         1.8189 
  54   0.0000       0.070212         1.9106 
  55   0.0000       0.082827         2.2538 
  56   0.0000       0.088320         2.4033 
  57   0.0000       0.092707         2.5227 
  58   0.0000       0.104924         2.8551 
  59   0.0000       0.112495         3.0611 
  60   0.0000       0.126143         3.4325 
  61   0.0000       0.127042         3.4570 
  62   0.0000       0.133451         3.6314 
  63   0.0000       0.142509         3.8779 
  64   0.0000       0.151299         4.1170 
  65   0.0000       0.158986         4.3262 
  66   0.0000       0.166553         4.5321 
  67   0.0000       0.170656         4.6438 
  68   0.0000       0.174271         4.7421 
  69   0.0000       0.177155         4.8206 
  70   0.0000       0.179887         4.8950 
  71   0.0000       0.186239         5.0678 
  72   0.0000       0.190899         5.1946 
  73   0.0000       0.197835         5.3834 
  74   0.0000       0.202138         5.5004 
  75   0.0000       0.204583         5.5670 
  76   0.0000       0.210960         5.7405 
  77   0.0000       0.215632         5.8677 
  78   0.0000       0.219662         5.9773 
  79   0.0000       0.226714         6.1692 
  80   0.0000       0.227395         6.1877 
  81   0.0000       0.236250         6.4287 
  82   0.0000       0.243476         6.6253 
  83   0.0000       0.250100         6.8056 
  84   0.0000       0.254491         6.9250 
  85   0.0000       0.264660         7.2018 
  86   0.0000       0.267784         7.2868 
  87   0.0000       0.270202         7.3526 
  88   0.0000       0.282330         7.6826 
  89   0.0000       0.286871         7.8062 
  90   0.0000       0.290903         7.9159 
  91   0.0000       0.292878         7.9696 
  92   0.0000       0.306508         8.3405 
  93   0.0000       0.315218         8.5775 
  94   0.0000       0.322553         8.7771 
  95   0.0000       0.329294         8.9605 
  96   0.0000       0.340515         9.2659 
  97   0.0000       0.342990         9.3332 
  98   0.0000       0.344795         9.3824 
  99   0.0000       0.357461         9.7270 
 100   0.0000       0.358399         9.7525 
 101   0.0000       0.366997         9.9865 
 102   0.0000       0.374131        10.1806 
 103   0.0000       0.376618        10.2483 
 104   0.0000       0.389836        10.6080 
 105   0.0000       0.397210        10.8086 
 106   0.0000       0.400524        10.8988 
 107   0.0000       0.411412        11.1951 
 108   0.0000       0.412123        11.2144 
 109   0.0000       0.419940        11.4272 
 110   0.0000       0.432933        11.7807 
 111   0.0000       0.439518        11.9599 
 112   0.0000       0.449185        12.2229 
 113   0.0000       0.455214        12.3870 
 114   0.0000       0.462208        12.5773 
 115   0.0000       0.469059        12.7637 
 116   0.0000       0.477388        12.9904 
 117   0.0000       0.484617        13.1871 
 118   0.0000       0.487749        13.2723 
 119   0.0000       0.501871        13.6566 
 120   0.0000       0.524054        14.2602 
 121   0.0000       0.524736        14.2788 
 122   0.0000       0.542166        14.7531 
 123   0.0000       0.546874        14.8812 
 124   0.0000       0.560918        15.2634 
 125   0.0000       0.590239        16.0612 
 126   0.0000       0.620524        16.8853 
 127   0.0000       0.624060        16.9815 
 128   0.0000       0.635836        17.3020 
 129   0.0000       0.647974        17.6323 
 130   0.0000       0.662393        18.0246 
 131   0.0000       0.671353        18.2685 
 132   0.0000       0.690805        18.7978 
 133   0.0000       0.703038        19.1306 
 134   0.0000       0.715957        19.4822 
 135   0.0000       0.730522        19.8785 
 136   0.0000       0.731066        19.8933 
 137   0.0000       0.747339        20.3361 
 138   0.0000       0.751210        20.4415 
 139   0.0000       0.788665        21.4607 
 140   0.0000       0.791532        21.5387 
 141   0.0000       0.808517        22.0009 
 142   0.0000       0.819477        22.2991 
 143   0.0000       0.832643        22.6574 
 144   0.0000       0.852352        23.1937 
 145   0.0000       0.862604        23.4727 
 146   0.0000       0.881003        23.9733 
 147   0.0000       0.899916        24.4880 
 148   0.0000       0.905534        24.6408 
 149   0.0000       0.915301        24.9066 
 150   0.0000       0.927089        25.2274 
 151   0.0000       0.950348        25.8603 
 152   0.0000       0.957549        26.0562 
 153   0.0000       0.965391        26.2696 
 154   0.0000       0.974838        26.5267 
 155   0.0000       1.003283        27.3007 
 156   0.0000       1.005774        27.3685 
 157   0.0000       1.027581        27.9619 
 158   0.0000       1.038357        28.2551 
 159   0.0000       1.045254        28.4428 
 160   0.0000       1.059157        28.8211 
 161   0.0000       1.074567        29.2405 
 162   0.0000       1.078967        29.3602 
 163   0.0000       1.097385        29.8614 
 164   0.0000       1.101562        29.9750 
 165   0.0000       1.116701        30.3870 
 166   0.0000       1.161104        31.5953 
[...]
      7      -0.001174  -0.001937  -0.037559   0.055246   0.129296   0.009072
      8      -0.001785  -0.000325   0.133108   0.211918   0.164389  -0.336853
      9      -0.000007  -0.000109  -0.054224   0.003022   0.180673   0.132002
     10       0.000878   0.001668   0.101521  -0.057554  -0.329028  -0.099438
     11       0.001811   0.003294   0.067616  -0.101102  -0.203209   0.113039
     12      -0.000074  -0.002489  -0.101116  -0.021263  -0.129759  -0.252259
     13       0.000318   0.001734   0.036616   0.015304   0.219390   0.198924
     14       0.000056  -0.002114  -0.146542  -0.023882   0.090190  -0.194828
     15      -0.000472   0.000950   0.109787   0.068424  -0.039586   0.147836
     16      -0.001185  -0.002925  -0.071048  -0.019873  -0.138663  -0.044507
     17      -0.002560  -0.002604   0.101808   0.089325  -0.253173   0.216366
     18      -0.000659  -0.000292   0.083620  -0.263457   0.119554  -0.016208
     19       0.001659  -0.001681  -0.027687  -0.159247  -0.034355  -0.033934
     20       0.000741  -0.002072   0.067342  -0.496955   0.119801  -0.059384
     21       0.000703   0.000211  -0.077914   0.182418  -0.067926  -0.003411
     22      -0.000285   0.000057   0.018437  -0.011679   0.009345   0.008038
     23       0.000626   0.000185  -0.070424   0.201533  -0.072477   0.005830
     24      -0.000090  -0.000063  -0.004760   0.027927  -0.014100   0.006706
     25      -0.000697   0.001697   0.008987   0.143603   0.016771   0.019437
     26      -0.000821   0.001862   0.004400   0.193312   0.000975   0.030177
     27      -0.000117  -0.000671   0.004709   0.012269  -0.000534  -0.006997
     28      -0.000093  -0.000141  -0.009459  -0.015131  -0.002092  -0.000732
     29      -0.000692  -0.001086  -0.005161   0.006723  -0.020554  -0.001081
     30       0.004230   0.004369  -0.096510  -0.207856  -0.179955   0.100666
     31       0.000504  -0.001052  -0.133633  -0.047734   0.103481   0.115232
     32       0.010093   0.007073  -0.515704  -0.585196  -0.201416   0.500809
     33       0.002091   0.006048   0.237565  -0.042078  -0.181202   0.111845
     34      -0.002386  -0.009665  -0.471972   0.005341   0.381348  -0.024424
     35      -0.000366  -0.004308  -0.332727  -0.069053   0.299039   0.207377
     36       0.003157   0.010153   0.267904  -0.031751   0.116093   0.297186
     37      -0.003145  -0.009293  -0.294355   0.015688   0.040226  -0.283933
     38       0.002887   0.006363   0.089568  -0.044043   0.287913   0.180408
     39      -0.016673   0.045556  -0.000921  -0.000785   0.000213  -0.001571
     40       0.055288   0.028884  -0.000437   0.001875   0.000868  -0.002500
     41       0.025239  -0.032448   0.001521  -0.000066   0.000414   0.002946
     42       0.387524  -0.479512   0.012252   0.022118   0.000536   0.000461
     43       0.105291  -0.048033   0.001195   0.005777   0.000314  -0.003211
     44       0.159087   0.504613  -0.017463   0.009417  -0.001474  -0.013853
     45       0.263980  -0.109591   0.003097   0.015167   0.001085  -0.009288
     46      -0.531989   0.257908  -0.007476  -0.024172  -0.001844   0.009553
     47      -0.407352  -0.226786  -0.000672   0.008398  -0.003944  -0.024942
     48      -0.428742  -0.026226  -0.004663  -0.003627  -0.002930  -0.007974
     49      -0.313941  -0.594172   0.013537  -0.004170  -0.004765   0.011525
     50      -0.090797   0.157797  -0.006180   0.000024   0.000881  -0.004239
     51      -0.000717   0.002331  -0.000125   0.000099   0.001066  -0.004053
     52       0.002564   0.001336  -0.001350  -0.003065  -0.000672  -0.002448
     53       0.001196  -0.001594  -0.000234  -0.000063  -0.000870   0.000904
                 48         49         50         51         52         53    
      0      -0.000652  -0.000202  -0.000193   0.001354   0.000055  -0.000133
      1      -0.000400  -0.000256  -0.000125  -0.000488   0.000324   0.000010
      2       0.000302   0.000354   0.000203   0.000843   0.000043  -0.000397
      3       0.000290   0.000186   0.000087   0.000712  -0.000373  -0.000194
      4      -0.000082  -0.000038  -0.000054  -0.000554   0.000265   0.000057
      5       0.000069   0.000057   0.000018   0.000536  -0.000300  -0.000256
      6       0.000009  -0.000011  -0.000035  -0.057722   0.007585   0.005585
      7      -0.000041   0.000009   0.000010   0.063692  -0.009499  -0.007463
      8      -0.000223  -0.000146  -0.000110   0.010219  -0.003689  -0.003777
      9      -0.000040  -0.000029  -0.000035   0.008429   0.034790   0.036374
     10       0.000035   0.000036   0.000067  -0.005507  -0.013510  -0.017687
     11       0.000079   0.000068   0.000055   0.007920   0.050634   0.046718
     12       0.000019   0.000026   0.000061   0.000162   0.001579  -0.005796
     13      -0.000005  -0.000021  -0.000048  -0.000940  -0.032048   0.039468
     14      -0.000035   0.000013   0.000020  -0.001227  -0.049333   0.052554
     15      -0.000032  -0.000011  -0.000088  -0.000192   0.001128  -0.001772
     16       0.000308   0.000177   0.000212  -0.000154  -0.000368   0.000690
     17       0.000024  -0.000024  -0.000027  -0.000458   0.001791  -0.002644
     18       0.000212   0.000137   0.000190   0.000152  -0.000082   0.000091
     19      -0.000298  -0.000148  -0.000242  -0.000143  -0.000456   0.000533
     20      -0.000082  -0.000011  -0.000047  -0.000015  -0.000788   0.000825
     21      -0.000098  -0.000067  -0.000145  -0.000067  -0.000065   0.000103
     22      -0.000015  -0.000001  -0.000091   0.000031   0.000088  -0.000156
     23      -0.000124  -0.000062  -0.000191  -0.000044   0.000057  -0.000051
     24      -0.000036  -0.000022  -0.000037  -0.000008   0.000339  -0.000293
     25       0.000109   0.000058   0.000080   0.000072  -0.000136   0.000072
     26       0.000124   0.000072   0.000105   0.000076   0.000465  -0.000465
     27      -0.000069  -0.000075  -0.000053  -0.000108  -0.000025  -0.000000
     28       0.000082   0.000053   0.000055   0.000046  -0.000031  -0.000011
     29      -0.000183  -0.000180  -0.000086  -0.000137   0.000018   0.000043
     30      -0.000698  -0.000116   0.000158   0.660000  -0.084967  -0.061282
     31       0.000762   0.000157  -0.000204  -0.720745   0.094222   0.068142
     32       0.000161   0.000038  -0.000017  -0.105960   0.016740   0.013177
     33       0.000046   0.000003  -0.000000  -0.093775  -0.410018  -0.387655
     34      -0.000110  -0.000012  -0.000011   0.042870   0.175325   0.168177
     35       0.000265   0.000038   0.000015  -0.122404  -0.559623  -0.524875
     36      -0.000040   0.000033  -0.000019  -0.001507  -0.039406   0.045359
     37       0.000041   0.000002   0.000057   0.011839   0.391953  -0.421525
     38       0.000153  -0.000045   0.000087   0.016642   0.555718  -0.591057
     39       0.026025  -0.077632  -0.000007  -0.000004  -0.000021   0.000006
     40      -0.008301  -0.013407  -0.090846  -0.000012  -0.000002  -0.000014
     41       0.037775   0.050725  -0.025069   0.000073   0.000005   0.000018
     42      -0.080996  -0.021131  -0.128792  -0.000080   0.000004  -0.000010
     43       0.551859   0.021352   0.816196   0.000388  -0.000097   0.000186
     44      -0.004122   0.010522  -0.022886  -0.000073  -0.000025  -0.000013
     45      -0.508533   0.632340   0.329942  -0.000614   0.000016  -0.000060
     46      -0.275861   0.346027   0.159423  -0.000205   0.000024  -0.000087
     47       0.044629  -0.036904  -0.029737  -0.000123  -0.000072   0.000002
     48       0.280634   0.308928  -0.198115   0.000376  -0.000034   0.000001
     49      -0.174085  -0.206225   0.103678  -0.000215   0.000040  -0.000009
     50      -0.490857  -0.575580   0.350243  -0.000751   0.000040  -0.000024
     51       0.000133   0.000189   0.000013  -0.000049  -0.000024  -0.000006
     52      -0.000007  -0.000006   0.000164  -0.000034  -0.000028  -0.000010
     53       0.000048  -0.000096   0.000085   0.000016   0.000008   0.000012


-----------
IR SPECTRUM
-----------

 Mode   freq       eps      Int      T**2         TX        TY        TZ
       cm**-1   L/(mol*cm) km/mol    a.u.
----------------------------------------------------------------------------
  8:     61.43   0.001291    6.53  0.006561  (-0.039912  0.052076  0.047499)
  9:     66.16   0.002291   11.58  0.010804  (-0.071244  0.047230  0.059144)
 10:     84.77   0.002778   14.04  0.010226  ( 0.083435  0.055755  0.012478)
 11:    123.05   0.000270    1.37  0.000686  (-0.005776 -0.019143 -0.016915)
 12:    151.08   0.001086    5.49  0.002243  ( 0.030193  0.034458 -0.012005)
 13:    189.76   0.002421   12.23  0.003981  ( 0.042377  0.045414 -0.011073)
 14:    252.24   0.000701    3.54  0.000868  ( 0.004774 -0.028146  0.007248)
 15:    294.83   0.002523   12.75  0.002671  (-0.037142 -0.034184 -0.011064)
 16:    391.39   0.000178    0.90  0.000142  ( 0.009607  0.005380  0.004530)
 17:    404.29   0.032371  163.59  0.024986  ( 0.090708  0.127053  0.024821)
 18:    446.95   0.041381  209.12  0.028893  ( 0.124691  0.113796  0.019882)
 19:    468.09   0.004623   23.36  0.003082  (-0.011811 -0.042004 -0.034322)
 20:    569.14   0.002926   14.79  0.001604  ( 0.006101 -0.025907  0.029930)
 21:    587.27   0.007496   37.88  0.003983  (-0.061646 -0.013268 -0.002610)
 22:    675.89   0.064894  327.95  0.029962  (-0.135623 -0.105614 -0.020346)
 23:    687.34   0.058345  294.85  0.026490  ( 0.099539  0.126380 -0.024693)
 24:    746.89   0.000713    3.60  0.000298  (-0.008117  0.005622 -0.014153)
 25:    762.41   0.030278  153.01  0.012393  ( 0.079779  0.073447 -0.025179)
 26:    820.90   0.008165   41.26  0.003104  ( 0.030170  0.038596 -0.026530)
 27:    834.02   0.005092   25.74  0.001905  ( 0.035086  0.022002 -0.013795)
 28:    902.89   0.017446   88.16  0.006030  (-0.047474  0.060200 -0.012325)
 29:    954.59   0.005767   29.15  0.001885  (-0.013423 -0.041198  0.002808)
 30:    972.60   0.005034   25.44  0.001615  ( 0.009547 -0.034459 -0.018351)
 31:   1015.46   0.000065    0.33  0.000020  (-0.001521  0.001380  0.003977)
 32:   1024.42   0.001652    8.35  0.000503  (-0.020672 -0.007024  0.005149)
 33:   1067.84   0.118401  598.35  0.034601  ( 0.017720 -0.172726 -0.066731)
 34:   1104.27   0.042345  213.99  0.011967  (-0.025808  0.106027 -0.007663)
 35:   1180.37   0.072253  365.14  0.019102  ( 0.037982 -0.095121 -0.092798)
 36:   1190.51   0.170846  863.38  0.044783  (-0.011897  0.178360  0.113266)
 37:   1272.48   0.049897  252.16  0.012237  ( 0.014204 -0.108208 -0.018052)
 38:   1293.29   0.194257  981.69  0.046873  (-0.079620  0.198854  0.031479)
 39:   1354.57   0.007232   36.55  0.001666  ( 0.027271 -0.018476  0.024103)
 40:   1398.59   0.146999  742.87  0.032800  (-0.085340  0.159703  0.003396)
 41:   1433.40   0.040768  206.02  0.008876  ( 0.082536 -0.028613  0.035280)
 42:   1455.72   0.001381    6.98  0.000296  ( 0.006149 -0.014682 -0.006528)
 43:   1464.84   0.002223   11.23  0.000474  (-0.019090 -0.009730  0.003799)
 44:   1490.65   0.015513   78.40  0.003248  ( 0.017148  0.020444  0.050355)
 45:   1543.57   0.170498  861.63  0.034470  (-0.119791 -0.002781 -0.141817)
 46:   1627.57   0.085412  431.64  0.016376  (-0.008361  0.087190  0.093298)
 47:   1661.02   0.113651  574.34  0.021352  (-0.115124  0.011401 -0.089267)
 48:   3050.03   0.024239  122.49  0.002480  ( 0.029910 -0.005824  0.039389)
 49:   3128.59   0.005557   28.08  0.000554  (-0.017130 -0.000953  0.016123)
 50:   3133.72   0.004695   23.73  0.000468  ( 0.003549 -0.020956 -0.003971)
 51:   3204.83   0.004659   23.54  0.000454  (-0.016382  0.013307 -0.002862)
 52:   3246.27   0.000257    1.30  0.000025  (-0.001205  0.000747  0.004764)
 53:   3257.98   0.000680    3.44  0.000065  ( 0.001617 -0.007360 -0.002889)

* The epsilon (eps) is given for a Dirac delta lineshape.
** The dipole moment derivative (T) already includes vibrational overlap.

The first frequency considered to be a vibration is 8
The total number of vibrations considered is 46


--------------------------
THERMOCHEMISTRY AT 298.15K
--------------------------

Temperature         ... 298.15 K
Pressure            ... 1.00 atm
Total Mass          ... 189.18 AMU

Throughout the following assumptions are being made:
  (1) The electronic state is orbitally nondegenerate
  (2) There are no thermally accessible electronically excited states
  (3) Hindered rotations indicated by low frequency modes are not
      treated as such but are treated as vibrations and this may
      cause some error
  (4) All equations used are the standard statistical mechanics
      equations for an ideal gas
  (5) All vibrations are strictly harmonic

freq.      61.43  E(vib)   ...       0.51 
freq.      66.16  E(vib)   ...       0.50 
freq.      84.77  E(vib)   ...       0.48 
freq.     123.05  E(vib)   ...       0.43 
freq.     151.08  E(vib)   ...       0.40 
freq.     189.76  E(vib)   ...       0.36 
freq.     252.24  E(vib)   ...       0.30 
freq.     294.83  E(vib)   ...       0.27 
freq.     391.39  E(vib)   ...       0.20 
freq.     404.29  E(vib)   ...       0.19 
freq.     446.95  E(vib)   ...       0.17 
freq.     468.09  E(vib)   ...       0.16 
freq.     569.14  E(vib)   ...       0.11 
freq.     587.27  E(vib)   ...       0.10 
freq.     675.89  E(vib)   ...       0.08 
freq.     687.34  E(vib)   ...       0.07 
freq.     746.89  E(vib)   ...       0.06 
freq.     762.41  E(vib)   ...       0.06 
freq.     820.90  E(vib)   ...       0.05 
freq.     834.02  E(vib)   ...       0.04 
freq.     902.89  E(vib)   ...       0.03 
freq.     954.59  E(vib)   ...       0.03 
freq.     972.60  E(vib)   ...       0.03 
freq.    1015.46  E(vib)   ...       0.02 
freq.    1024.42  E(vib)   ...       0.02 
freq.    1067.84  E(vib)   ...       0.02 
freq.    1104.27  E(vib)   ...       0.02 
freq.    1180.37  E(vib)   ...       0.01 
freq.    1190.51  E(vib)   ...       0.01 
freq.    1272.48  E(vib)   ...       0.01 
freq.    1293.29  E(vib)   ...       0.01 
freq.    1354.57  E(vib)   ...       0.01 
freq.    1398.59  E(vib)   ...       0.00 
freq.    1433.40  E(vib)   ...       0.00 
freq.    1455.72  E(vib)   ...       0.00 
freq.    1464.84  E(vib)   ...       0.00 
freq.    1490.65  E(vib)   ...       0.00 
freq.    1543.57  E(vib)   ...       0.00 
freq.    1627.57  E(vib)   ...       0.00 
freq.    1661.02  E(vib)   ...       0.00 
freq.    3050.03  E(vib)   ...       0.00 
freq.    3128.59  E(vib)   ...       0.00 
freq.    3133.72  E(vib)   ...       0.00 
freq.    3204.83  E(vib)   ...       0.00 
freq.    3246.27  E(vib)   ...       0.00 
freq.    3257.98  E(vib)   ...       0.00 

------------
INNER ENERGY
------------

The inner energy is: U= E(el) + E(ZPE) + E(vib) + E(rot) + E(trans)
    E(el)   - is the total energy from the electronic structure calculation
              = E(kin-el) + E(nuc-el) + E(el-el) + E(nuc-nuc)
    E(ZPE)  - the the zero temperature vibrational energy from the frequency calculation
    E(vib)  - the the finite temperature correction to E(ZPE) due to population
              of excited vibrational states
    E(rot)  - is the rotational thermal energy
    E(trans)- is the translational thermal energy

Summary of contributions to the inner energy U:
Electronic energy                ...   -990.26660923 Eh
Zero point energy                ...      0.12085213 Eh      75.84 kcal/mol
Thermal vibrational correction   ...      0.00761552 Eh       4.78 kcal/mol
Thermal rotational correction    ...      0.00141627 Eh       0.89 kcal/mol
Thermal translational correction ...      0.00141627 Eh       0.89 kcal/mol
-----------------------------------------------------------------------
Total thermal energy                   -990.13530904 Eh


Summary of corrections to the electronic energy:
(perhaps to be used in another calculation)
Total thermal correction                  0.01044807 Eh       6.56 kcal/mol
Non-thermal (ZPE) correction              0.12085213 Eh      75.84 kcal/mol
-----------------------------------------------------------------------
Total correction                          0.13130019 Eh      82.39 kcal/mol


--------
ENTHALPY
--------

The enthalpy is H = U + kB*T
                kB is Boltzmann's constant
Total free energy                 ...   -990.13530904 Eh 
Thermal Enthalpy correction       ...      0.00094421 Eh       0.59 kcal/mol
-----------------------------------------------------------------------
Total Enthalpy                    ...   -990.13436484 Eh


Note: Only C1 symmetry has been detected, increase convergence thresholds 
      if your molecule has a higher symmetry. Symmetry factor of 1.0 is   
      used for the rotational entropy correction. 
 

Note: Rotational entropy computed according to Herzberg 
Infrared and Raman Spectra, Chapter V,1, Van Nostrand Reinhold, 1945 
Point Group:  C1, Symmetry Number:   1  
Rotational constants in cm-1:     0.032661     0.027879     0.019228 

Vibrational entropy computed according to the QRRHO of S. Grimme
Chem.Eur.J. 2012 18 9955


-------
ENTROPY
-------

The entropy contributions are T*S = T*(S(el)+S(vib)+S(rot)+S(trans))
     S(el)   - electronic entropy
     S(vib)  - vibrational entropy
     S(rot)  - rotational entropy
     S(trans)- translational entropy
The entropies will be listed as multiplied by the temperature to get
units of energy

Electronic entropy                ...      0.00000000 Eh      0.00 kcal/mol
Vibrational entropy               ...      0.01333109 Eh      8.37 kcal/mol
Rotational entropy                ...      0.01468154 Eh      9.21 kcal/mol
Translational entropy             ...      0.01977419 Eh     12.41 kcal/mol
-----------------------------------------------------------------------
Final entropy term                ...      0.04778681 Eh     29.99 kcal/mol

In case the symmetry of your molecule has not been determined correctly
or in case you have a reason to use a different symmetry number we print 
out the resulting rotational entropy values for sn=1,12 :
 --------------------------------------------------------
|  sn= 1 | S(rot)=       0.01468154 Eh      9.21 kcal/mol|
|  sn= 2 | S(rot)=       0.01402709 Eh      8.80 kcal/mol|
|  sn= 3 | S(rot)=       0.01364425 Eh      8.56 kcal/mol|
|  sn= 4 | S(rot)=       0.01337263 Eh      8.39 kcal/mol|
|  sn= 5 | S(rot)=       0.01316194 Eh      8.26 kcal/mol|
|  sn= 6 | S(rot)=       0.01298980 Eh      8.15 kcal/mol|
|  sn= 7 | S(rot)=       0.01284425 Eh      8.06 kcal/mol|
|  sn= 8 | S(rot)=       0.01271817 Eh      7.98 kcal/mol|
|  sn= 9 | S(rot)=       0.01260696 Eh      7.91 kcal/mol|
|  sn=10 | S(rot)=       0.01250748 Eh      7.85 kcal/mol|
|  sn=11 | S(rot)=       0.01241749 Eh      7.79 kcal/mol|
|  sn=12 | S(rot)=       0.01233534 Eh      7.74 kcal/mol|
 --------------------------------------------------------


-------------------
GIBBS FREE ENERGY
-------------------

The Gibbs free energy is G = H - T*S

Total enthalpy                    ...   -990.13436484 Eh 
Total entropy correction          ...     -0.04778681 Eh    -29.99 kcal/mol
-----------------------------------------------------------------------
Final Gibbs free energy         ...   -990.18215165 Eh

For completeness - the Gibbs free energy minus the electronic energy
G-E(el)                           ...      0.08445759 Eh     53.00 kcal/mol



Timings for individual modules:

Sum of individual times         ...    59267.052 sec (= 987.784 min)
GTO integral calculation        ...       93.910 sec (=   1.565 min)   0.2 %
SCF iterations                  ...     1800.819 sec (=  30.014 min)   3.0 %
SCF Gradient evaluation         ...      458.755 sec (=   7.646 min)   0.8 %
Geometry relaxation             ...        1.986 sec (=   0.033 min)   0.0 %
Numerical frequency calculation ...     2383.275 sec (=  39.721 min)   4.0 %
NEB Iterations                  ...    54528.308 sec (= 908.805 min)  92.0 %
                             ****ORCA TERMINATED NORMALLY****
TOTAL RUN TIME: 0 days 16 hours 28 minutes 8 seconds 630 msec
