
                                 *****************
                                 * O   R   C   A *
                                 *****************

                                            #,                                       
                                            ###                                      
                                            ####                                     
                                            #####                                    
                                            ######                                   
                                           ########,                                 
                                     ,,################,,,,,                         
                               ,,#################################,,                 
                          ,,##########################################,,             
                       ,#########################################, ''#####,          
                    ,#############################################,,   '####,        
                  ,##################################################,,,,####,       
                ,###########''''           ''''###############################       
              ,#####''   ,,,,##########,,,,          '''####'''          '####       
            ,##' ,,,,###########################,,,                        '##       
           ' ,,###''''                  '''############,,,                           
         ,,##''                                '''############,,,,        ,,,,,,###''
      ,#''                                            '''#######################'''  
     '                                                          ''''####''''         
             ,#######,   #######,   ,#######,      ##                                
            ,#'     '#,  ##    ##  ,#'     '#,    #''#        ######   ,####,        
            ##       ##  ##   ,#'  ##            #'  '#       #        #'  '#        
            ##       ##  #######   ##           ,######,      #####,   #    #        
            '#,     ,#'  ##    ##  '#,     ,#' ,#      #,         ##   #,  ,#        
             '#######'   ##     ##  '#######'  #'      '#     #####' # '####'        



                  #######################################################
                  #                        -***-                        #
                  #          Department of theory and spectroscopy      #
                  #    Directorship and core code : Frank Neese         #
                  #        Max Planck Institute fuer Kohlenforschung    #
                  #                Kaiser Wilhelm Platz 1               #
                  #                 D-45470 Muelheim/Ruhr               #
                  #                      Germany                        #
                  #                                                     #
                  #                  All rights reserved                #
                  #                        -***-                        #
                  #######################################################


                         Program Version 5.0.4 -  RELEASE  -


 With contributions from (in alphabetic order):
   Daniel Aravena         : Magnetic Suceptibility
   Michael Atanasov       : Ab Initio Ligand Field Theory (pilot matlab implementation)
   Alexander A. Auer      : GIAO ZORA, VPT2 properties, NMR spectrum
   Ute Becker             : Parallelization
   Giovanni Bistoni       : ED, misc. LED, open-shell LED, HFLD
   Martin Brehm           : Molecular dynamics
   Dmytro Bykov           : SCF Hessian
   Vijay G. Chilkuri      : MRCI spin determinant printing, contributions to CSF-ICE
   Dipayan Datta          : RHF DLPNO-CCSD density
   Achintya Kumar Dutta   : EOM-CC, STEOM-CC
   Dmitry Ganyushin       : Spin-Orbit,Spin-Spin,Magnetic field MRCI
   Miquel Garcia          : C-PCM and meta-GGA Hessian, CC/C-PCM, Gaussian charge scheme
   Yang Guo               : DLPNO-NEVPT2, F12-NEVPT2, CIM, IAO-localization
   Andreas Hansen         : Spin unrestricted coupled pair/coupled cluster methods
   Benjamin Helmich-Paris : MC-RPA, TRAH-SCF, COSX integrals
   Lee Huntington         : MR-EOM, pCC
   Robert Izsak           : Overlap fitted RIJCOSX, COSX-SCS-MP3, EOM
   Marcus Kettner         : VPT2
   Christian Kollmar      : KDIIS, OOCD, Brueckner-CCSD(T), CCSD density, CASPT2, CASPT2-K
   Simone Kossmann        : Meta GGA functionals, TD-DFT gradient, OOMP2, MP2 Hessian
   Martin Krupicka        : Initial AUTO-CI
   Lucas Lang             : DCDCAS
   Marvin Lechner         : AUTO-CI (C++ implementation), FIC-MRCC
   Dagmar Lenk            : GEPOL surface, SMD
   Dimitrios Liakos       : Extrapolation schemes; Compound Job, initial MDCI parallelization
   Dimitrios Manganas     : Further ROCIS development; embedding schemes
   Dimitrios Pantazis     : SARC Basis sets
   Anastasios Papadopoulos: AUTO-CI, single reference methods and gradients
   Taras Petrenko         : DFT Hessian,TD-DFT gradient, ASA, ECA, R-Raman, ABS, FL, XAS/XES, NRVS
   Peter Pinski           : DLPNO-MP2, DLPNO-MP2 Gradient
   Christoph Reimann      : Effective Core Potentials
   Marius Retegan         : Local ZFS, SOC
   Christoph Riplinger    : Optimizer, TS searches, QM/MM, DLPNO-CCSD(T), (RO)-DLPNO pert. Triples
   Tobias Risthaus        : Range-separated hybrids, TD-DFT gradient, RPA, STAB
   Michael Roemelt        : Original ROCIS implementation
   Masaaki Saitow         : Open-shell DLPNO-CCSD energy and density
   Barbara Sandhoefer     : DKH picture change effects
   Avijit Sen             : IP-ROCIS
   Kantharuban Sivalingam : CASSCF convergence, NEVPT2, FIC-MRCI
   Bernardo de Souza      : ESD, SOC TD-DFT
   Georgi Stoychev        : AutoAux, RI-MP2 NMR, DLPNO-MP2 response
   Willem Van den Heuvel  : Paramagnetic NMR
   Boris Wezisla          : Elementary symmetry handling
   Frank Wennmohs         : Technical directorship


 We gratefully acknowledge several colleagues who have allowed us to
 interface, adapt or use parts of their codes:
   Stefan Grimme, W. Hujo, H. Kruse, P. Pracht,  : VdW corrections, initial TS optimization,
                  C. Bannwarth, S. Ehlert          DFT functionals, gCP, sTDA/sTD-DF
   Ed Valeev, F. Pavosevic, A. Kumar             : LibInt (2-el integral package), F12 methods
   Garnet Chan, S. Sharma, J. Yang, R. Olivares  : DMRG
   Ulf Ekstrom                                   : XCFun DFT Library
   Mihaly Kallay                                 : mrcc  (arbitrary order and MRCC methods)
   Jiri Pittner, Ondrej Demel                    : Mk-CCSD
   Frank Weinhold                                : gennbo (NPA and NBO analysis)
   Christopher J. Cramer and Donald G. Truhlar   : smd solvation model
   Lars Goerigk                                  : TD-DFT with DH, B97 family of functionals
   V. Asgeirsson, H. Jonsson                     : NEB implementation
   FAccTs GmbH                                   : IRC, NEB, NEB-TS, DLPNO-Multilevel, CI-OPT
                                                   MM, QMMM, 2- and 3-layer-ONIOM, Crystal-QMMM,
                                                   LR-CPCM, SF, NACMEs, symmetry and pop. for TD-DFT,
                                                   nearIR, NL-DFT gradient (VV10), updates on ESD,
                                                   ML-optimized integration grids
   S Lehtola, MJT Oliveira, MAL Marques          : LibXC Library
   Liviu Ungur et al                             : ANISO software


 Your calculation uses the libint2 library for the computation of 2-el integrals
 For citations please refer to: http://libint.valeyev.net

 Your ORCA version has been built with support for libXC version: 5.1.0
 For citations please refer to: https://tddft.org/programs/libxc/

 This ORCA versions uses:
   CBLAS   interface :  Fast vector & matrix operations
   LAPACKE interface :  Fast linear algebra routines
   SCALAPACK package :  Parallel linear algebra routines
   Shared memory     :  Shared parallel matrices
   BLAS/LAPACK       :  OpenBLAS 0.3.15  USE64BITINT DYNAMIC_ARCH NO_AFFINITY SkylakeX SINGLE_THREADED
        Core in use  :  SkylakeX
   Copyright (c) 2011-2014, The OpenBLAS Project




***************************************
The coordinates will be read from file: reactants.xyz
***************************************


Your calculation utilizes the SMD solvation module
Please cite in your paper:
A.V. Marenich, C.J. Cramer, D.G. Truhlar J. Phys. Chem. B, 113, (2009), 6378 

XCFun DFT library Copyright 2009-2010 Ulf Ekstrom and contributors.
See http://admol.org/xcfun for more information.
This is free software; see the source code for copying conditions.
There is ABSOLUTELY NO WARRANTY; not even for MERCHANTABILITY or FITNESS FOR A PARTICULAR PURPOSE.
For details see the documentation.
Scientific users of this library should cite U. Ekstrom, L. Visscher, R. Bast, A. J. Thorvaldsen and K. Ruud;
J.Chem.Theor.Comp. 2010, DOI: 10.1021/ct100117s
XCFun Version 0.99 

================================================================================

----- Orbital basis set information -----
Your calculation utilizes the basis: 6-311++G**
   H, Li - Ne  : R. Krishnan, J. S. Binkley, R. Seeger and J. A. Pople, J. Chem. Phys. 72, 650 (1980).
   Na - Ar     : A. D. McLean and G. S. Chandler J. Chem. Phys. 72, 5639, (1980).
   K  - Ca     : J.-P. Blaudeau, M. P. McGrath, L. A. Curtiss and L. Radom, J. Chem. Phys. 107, 5016 (1997).
   Ga - Kr     : L. A. Curtiss, M. P. McGrath, J.-P. Blandeau, N. E. Davis, R. C. Binning and L. Radom, J. Chem. Phys. 103, 6104 (1995).
   Pol./Diff.
   H, Li - Cl  : T. Clark, J. Chandrasekhar and P. v. R. Schleyer, J. Comp. Chem. 4, 294 (1983).
   H - Ne      : M. J. Frisch, J. A. Pople and J. S. Binkley, J. Chem. Phys. 80, 3265 (1984).

----- AuxJ basis set information -----
Your calculation utilizes the auxiliary basis: def2/J
   F. Weigend, Phys. Chem. Chem. Phys. 8, 1057 (2006).

================================================================================
                                        WARNINGS
                       Please study these warnings very carefully!
================================================================================


WARNING: Geometry Optimization
  ===> : Switching off AutoStart
         For restart on a previous wavefunction, please use MOREAD

INFO   : the flag for use of the SHARK integral package has been found!

================================================================================
                                       INPUT FILE
================================================================================
NAME = structure_opt.inp
|  1> !wb97x 6-311++G** OPT CPCM(WATER)
|  2> %maxcore  3500
|  3> %pal
|  4> nprocs 24
|  5> end
|  6> %cpcm
|  7> smd true
|  8> SMDsolvent "water"
|  9> end
| 10> %geom
| 11> ConstrainFragments {1} end
| 12> ConstrainFragments {4} end
| 13> ConnectFragments
| 14> { 1 2 C 5 7 }
| 15> { 1 2 C 0 9 }
| 16> { 2 3 C 13 5 }
| 17> { 3 4 C 13 17 }
| 18> end
| 19> end
| 20> * XYZfile -1 1 reactants.xyz
| 21> %geom
| 22> Fragments
| 23> 1 {0:5} end
| 24> 2 {6:12} end
| 25> 3 {13:16} end
| 26> 4 {17} end
| 27> end
| 28> end
| 29> 
| 30>                          ****END OF INPUT****
================================================================================

                       *****************************
                       * Geometry Optimization Run *
                       *****************************

Geometry optimization settings:
Update method            Update   .... BFGS
Choice of coordinates    CoordSys .... Z-matrix Internals
Initial Hessian          InHess   .... Almoef's Model

Convergence Tolerances:
Energy Change            TolE     ....  5.0000e-06 Eh
Max. Gradient            TolMAXG  ....  3.0000e-04 Eh/bohr
RMS Gradient             TolRMSG  ....  1.0000e-04 Eh/bohr
Max. Displacement        TolMAXD  ....  4.0000e-03 bohr
RMS Displacement         TolRMSD  ....  2.0000e-03 bohr
Strict Convergence                ....  False
------------------------------------------------------------------------------
                        ORCA OPTIMIZATION COORDINATE SETUP
------------------------------------------------------------------------------

The optimization will be done in new redundant internal coordinates
Making redundant internal coordinates   ...  (new redundants) done
Evaluating the initial hessian          ...  (Almloef) done
Evaluating the coordinates              ...  done
Calculating the B-matrix                .... done
Calculating the G-matrix                .... done
Diagonalizing the G-matrix              .... done
Imposing constraints:
 Iter   0:  RMS(Cart)=    0.0000000000 RMS(Int)=    0.0000000000
CONVERGED
Small eigenvalue found = 1.025e-02
The first mode is                       ....   72
The number of degrees of freedom        ....   48
Storing new coordinates                 .... done

    -----------------------------------------------------------------
                    Redundant Internal Coordinates


    -----------------------------------------------------------------
         Definition                    Initial Value    Approx d2E/dq
    -----------------------------------------------------------------
      1. B(N   1,C   0)                  1.3611         0.622347   
      2. B(C   2,N   1)                  1.3582         0.628875   
      3. B(C   3,C   2)                  1.3949         0.613658   
      4. B(C   4,C   3)                  1.3934         0.616971   
      5. B(C   5,C   0)                  1.4122         0.575774   
      6. B(C   5,C   4)                  1.4061         0.588917   
      7. B(O   7,C   5)                  2.3435         0.016853 C 
      8. B(O   7,N   6)                  1.2480         0.844503   
      9. B(O   8,N   6)                  1.3769         0.525866   
     10. B(F   9,C   0)                  1.3500         0.602260 C 
     11. B(F   9,N   6)                  2.8678         0.002044   
     12. B(F   9,O   7)                  2.5821         0.005837   
     13. B(H  11,H  10)                  2.4818         0.000415   
     14. B(H  12,O   8)                  2.5152         0.001717   
     15. B(H  12,H  11)                  2.4663         0.000439   
     16. B(H  12,N   6)                  2.7029         0.000861   
     17. B(C  13,O   7)                  8.3626         0.000000 C 
     18. B(H  14,C  13)                  1.0935         0.355554   
     19. B(H  15,C  13)                  1.0935         0.355484   
     20. B(H  16,C  13)                  1.0931         0.356036   
     21. B(S  17,C  13)                  1.8031         0.369311 C 
     22. A(N   1,C   0,C   5)          120.1571         0.425830   
     23. A(N   1,C   0,F   9)          118.6704         0.424592 C 
     24. A(C   5,C   0,F   9)          121.1725         0.421471 C 
     25. A(C   0,N   1,C   2)          121.9524         0.429796   
     26. A(N   1,C   2,C   3)          120.0262         0.431531   
     27. A(C   2,C   3,C   4)          119.3498         0.432882   
     28. A(C   3,C   4,C   5)          120.4718         0.429694   
     29. A(C   0,C   5,O   7)           94.5313         0.237820 C 
     30. A(C   0,C   5,C   4)          118.0425         0.424407   
     31. A(C   4,C   5,O   7)          147.4261         0.238582 C 
     32. A(O   7,N   6,F   9)           64.2090         0.186619   
     33. A(O   8,N   6,H  12)           67.2752         0.152046   
     34. A(O   7,N   6,H  12)          174.2234         0.159181   
     35. A(F   9,N   6,H  12)          110.0144         0.106848   
     36. A(O   7,N   6,O   8)          118.5014         0.433822   
     37. A(N   6,O   7,F   9)           89.9947         0.212791   
     38. A(C   5,O   7,C  13)          153.8696         0.089445   
     39. A(C   5,O   7,N   6)           31.7456         0.248611 C 
     40. A(C   5,O   7,F   9)           58.2491         0.140475 C 
     41. A(N   6,O   7,C  13)          160.7054         0.090070 C 
     42. A(F   9,O   7,C  13)          100.4171         0.089345 C 
     43. A(N   6,O   8,H  12)           82.3972         0.162696   
     44. A(N   6,F   9,O   7)           25.7962         0.120482   
     45. A(C   0,F   9,O   7)           86.0471         0.203997 C 
     46. A(C   0,F   9,N   6)           60.2509         0.179684 C 
     47. A(H  10,H  11,H  12)          119.7063         0.095112   
     48. A(N   6,H  12,O   8)           30.3275         0.103999   
     49. A(N   6,H  12,H  11)          126.7169         0.097913   
     50. A(O   8,H  12,H  11)          157.0445         0.099419   
     51. A(H  14,C  13,H  16)          108.9106         0.289743   
     52. A(H  15,C  13,H  16)          109.0185         0.289734   
     53. A(O   7,C  13,S  17)           17.5465         0.089966   
     54. A(H  16,C  13,S  17)          109.8971         0.339541 C 
     55. A(O   7,C  13,H  15)          109.8310         0.089774 C 
     56. A(O   7,C  13,H  16)           94.1500         0.089774 C 
     57. A(H  14,C  13,S  17)          109.9699         0.339464 C 
     58. A(H  15,C  13,S  17)          109.9538         0.339453 C 
     59. A(O   7,C  13,H  14)          124.2986         0.089774 C 
     60. A(H  14,C  13,H  15)          109.0653         0.289673   
     61. D(C   2,N   1,C   0,C   5)     -0.1041         0.028432   
     62. D(C   2,N   1,C   0,F   9)    179.9112         0.028432 C 
     63. D(C   3,C   2,N   1,C   0)      0.1066         0.025783   
     64. D(C   4,C   3,C   2,N   1)     -0.0956         0.020965   
     65. D(C   5,C   4,C   3,C   2)      0.0854         0.021202   
     66. D(O   7,C   5,C   0,N   1)    179.9933         0.022761 C 
     67. D(O   7,C   5,C   4,C   3)   -179.9036         0.021656 C 
     68. D(O   7,C   5,C   0,F   9)     -0.0223         0.022761 C 
     69. D(C   4,C   5,C   0,N   1)      0.0896         0.022761   
     70. D(C   4,C   5,C   0,F   9)   -179.9260         0.022761 C 
     71. D(C   0,C   5,C   4,C   3)     -0.0818         0.021656   
     72. D(F   9,O   7,C   5,C   0)      0.0117         0.001519 C 
     73. D(F   9,O   7,C   5,C   4)    179.8539         0.001519 C 
     74. D(C  13,O   7,N   6,F   9)   -123.1578         0.085936 C 
     75. D(C  13,O   7,C   5,C   0)    -38.8453         0.001519   
     76. D(C  13,O   7,C   5,C   4)    140.9969         0.001519   
     77. D(N   6,O   7,C   5,C   4)     -0.1099         0.001519 C 
     78. D(C  13,O   7,N   6,O   8)     56.8354         0.085936 C 
     79. D(F   9,O   7,N   6,H  12)      0.1568         0.085936   
     80. D(C   5,O   7,N   6,O   8)   -179.9761         0.085936 C 
     81. D(C   5,O   7,N   6,H  12)      0.1876         0.085936 C 
     82. D(F   9,O   7,N   6,O   8)    179.9932         0.085936   
     83. D(C   5,O   7,N   6,F   9)      0.0308         0.085936 C 
     84. D(N   6,O   7,C   5,C   0)   -179.9521         0.001519 C 
     85. D(C  13,O   7,N   6,H  12)   -123.0010         0.085936 C 
     86. D(H  12,O   8,N   6,O   7)   -179.9821         0.025649   
     87. D(O   7,F   9,N   6,H  12)   -179.9832         0.001500   
     88. D(N   6,F   9,C   0,C   5)      0.0236         0.032536 C 
     89. D(O   7,F   9,C   0,N   1)   -179.9952         0.032536 C 
     90. D(N   6,F   9,C   0,N   1)   -179.9918         0.032536 C 
     91. D(O   7,F   9,C   0,C   5)      0.0202         0.032536 C 
     92. D(C   0,F   9,N   6,O   7)   -179.9922         0.001500 C 
     93. D(O   7,F   9,O   8,H  12)   -179.9897         0.001500   
     94. D(N   6,F   9,O   7,C   5)     -0.0190         0.001503 C 
     95. D(N   6,F   9,O   7,C  13)    163.6647         0.001503 C 
     96. D(C   0,F   9,O   7,N   6)      0.0068         0.001503 C 
     97. D(C   0,F   9,O   7,C   5)     -0.0123         0.001503 C 
     98. D(C   0,F   9,N   6,H  12)      0.0246         0.001500 C 
     99. D(C   0,F   9,O   7,C  13)    163.6715         0.001503   
    100. D(C   0,F   9,O   8,H  12)      0.0232         0.001500 C 
    101. D(O   8,H  12,N   6,O   7)    179.8441         0.001501   
    102. D(N   6,H  12,H  11,H  10)      0.0466         0.001502   
    103. D(H  11,H  12,N   6,O   7)     -0.1748         0.001501   
    104. D(H  11,H  12,N   6,O   8)    179.9811         0.001501   
    105. D(H  11,H  12,N   6,F   9)     -0.0245         0.001501   
    106. D(O   8,H  12,N   6,F   9)    179.9943         0.001501   
    107. D(H  11,H  12,O   8,N   6)     -0.0388         0.001502   
    108. D(O   8,H  12,H  11,H  10)      0.0710         0.001502   
    109. D(H  14,C  13,O   7,N   6)    162.7035         0.001500 C 
    110. D(S  17,C  13,O   7,F   9)      2.8601         0.001500   
    111. D(H  14,C  13,O   7,C   5)     73.8948         0.001500   
    112. D(H  15,C  13,O   7,N   6)     30.9197         0.001500 C 
    113. D(H  15,C  13,O   7,F   9)    -90.7382         0.001500 C 
    114. D(H  15,C  13,O   7,C   5)    -57.8891         0.001500   
    115. D(H  16,C  13,O   7,N   6)    -81.0116         0.001500 C 
    116. D(H  16,C  13,O   7,F   9)    157.3305         0.001500 C 
    117. D(H  16,C  13,O   7,C   5)   -169.8203         0.001500   
    118. D(H  14,C  13,O   7,F   9)     41.0456         0.001500 C 
    119. D(S  17,C  13,O   7,N   6)    124.5180         0.001500   
    120. D(S  17,C  13,O   7,C   5)     35.7092         0.001500   
    -----------------------------------------------------------------

Number of atoms                         .... 18
Number of degrees of freedom            .... 120

         *************************************************************
         *                GEOMETRY OPTIMIZATION CYCLE   1            *
         *************************************************************
---------------------------------
CARTESIAN COORDINATES (ANGSTROEM)
---------------------------------
  C      0.000000    0.000000    1.820000
  N      1.178000   -0.196000    2.473000
  C      1.255000   -0.207000    3.829000
  C      0.105000   -0.016000    4.595000
  C     -1.116000    0.187000    3.955000
  C     -1.192000    0.198000    2.551000
  N     -2.456000    0.409000    1.893000
  O     -2.541000    0.423000    0.648000
  O     -3.602000    0.600000    2.632000
  F      0.000000    0.000000    0.470000
  H      2.209000   -0.366000    4.313000
  H      0.163000   -0.026000    5.676000
  H     -2.005000    0.335000    4.557000
  C     -4.186000    3.041000   -7.122000
  H     -3.755000    2.600000   -8.025000
  H     -4.090000    4.129000   -7.175000
  H     -5.246000    2.779000   -7.071000
  S     -3.329000    2.418000   -5.663000

----------------------------
CARTESIAN COORDINATES (A.U.)
----------------------------
  NO LB      ZA    FRAG     MASS         X           Y           Z
   0 C     6.0000    1    12.011    0.000000    0.000000    3.439302
   1 N     7.0000    1    14.007    2.226097   -0.370386    4.673293
   2 C     6.0000    1    12.011    2.371606   -0.391173    7.235761
   3 C     6.0000    1    12.011    0.198421   -0.030236    8.683292
   4 C     6.0000    1    12.011   -2.108934    0.353379    7.473867
   5 C     6.0000    1    12.011   -2.252554    0.374166    4.820691
   6 N     7.0000    2    14.007   -4.641167    0.772898    3.577252
   7 O     8.0000    2    15.999   -4.801794    0.799354    1.224543
   8 O     8.0000    2    15.999   -6.806794    1.133836    4.973759
   9 F     9.0000    2    18.998    0.000000    0.000000    0.888171
  10 H     1.0000    2     1.008    4.174405   -0.691640    8.150389
  11 H     1.0000    2     1.008    0.308025   -0.049133   10.726086
  12 H     1.0000    2     1.008   -3.788901    0.633058    8.611482
  13 C     6.0000    3    12.011   -7.910394    5.746657  -13.458630
  14 H     1.0000    3     1.008   -7.095922    4.913288  -15.165052
  15 H     1.0000    3     1.008   -7.728980    7.802679  -13.558785
  16 H     1.0000    3     1.008   -9.913503    5.251549  -13.362253
  17 S    16.0000    4    32.060   -6.290898    4.569358  -10.701519

----------------------------------------------
CARTESIAN COORDINATES OF FRAGMENTS (ANGSTROEM)
----------------------------------------------

 FRAGMENT 1 
  C     0.000000    0.000000    1.820000
  N     1.178000   -0.196000    2.473000
  C     1.255000   -0.207000    3.829000
  C     0.105000   -0.016000    4.595000
  C    -1.116000    0.187000    3.955000
  C    -1.192000    0.198000    2.551000

 FRAGMENT 2 
  N    -2.456000    0.409000    1.893000
  O    -2.541000    0.423000    0.648000
  O    -3.602000    0.600000    2.632000
  F     0.000000    0.000000    0.470000
  H     2.209000   -0.366000    4.313000
  H     0.163000   -0.026000    5.676000
  H    -2.005000    0.335000    4.557000

 FRAGMENT 3 
  C    -4.186000    3.041000   -7.122000
  H    -3.755000    2.600000   -8.025000
  H    -4.090000    4.129000   -7.175000
  H    -5.246000    2.779000   -7.071000

 FRAGMENT 4 
  S    -3.329000    2.418000   -5.663000

--------------------------------
INTERNAL COORDINATES (ANGSTROEM)
--------------------------------
 C      0   0   0     0.000000000000     0.00000000     0.00000000
 N      1   0   0     1.361069065110     0.00000000     0.00000000
 C      2   1   0     1.358228993948   121.95243626     0.00000000
 C      3   2   1     1.394896770374   120.02620694     0.10655554
 C      4   3   2     1.393431017309   119.34983770   359.90435571
 C      5   4   3     1.406098502951   120.47178172     0.08537773
 N      6   5   4     1.440548853736   120.30882193   180.03842131
 O      7   6   5     1.247976762604   121.13704526   179.93147861
 O      7   6   5     1.376923382037   120.36156660   359.90709941
 F      1   2   3     1.350000000000   118.67037638   179.91115691
 H      3   2   1     1.081504969938   119.86701156   179.98746005
 H      4   3   2     1.082601034546   120.19197482   179.89186186
 H      5   4   3     1.083803026384   118.91636700   180.02085854
 C      8   7   6     8.362586262634   160.70539165   236.81142355
 H     14   8   7     1.093458275381   124.29860737   162.70349668
 H     14   8   7     1.093512231299   109.83099825    30.91968619
 H     14   8   7     1.093089657805    94.14997113   278.98839554
 S     14   8   7     1.803124787695    17.54650883   124.51798804

---------------------------
INTERNAL COORDINATES (A.U.)
---------------------------
 C      0   0   0     0.000000000000     0.00000000     0.00000000
 N      1   0   0     2.572047782411     0.00000000     0.00000000
 C      2   1   0     2.566680825712   121.95243626     0.00000000
 C      3   2   1     2.635972881098   120.02620694     0.10655554
 C      4   3   2     2.633203009226   119.34983770   359.90435571
 C      5   4   3     2.657141087893   120.47178172     0.08537773
 N      6   5   4     2.722242816095   120.30882193   180.03842131
 O      7   6   5     2.358334302820   121.13704526   179.93147861
 O      7   6   5     2.602008099442   120.36156660   359.90709941
 F      1   2   3     2.551130280794   118.67037638   179.91115691
 H      3   2   1     2.043748205657   119.86701156   179.98746005
 H      4   3   2     2.045819467592   120.19197482   179.89186186
 H      5   4   3     2.048090902982   118.91636700   180.02085854
 C      8   7   6    15.802997807671   160.70539165   236.81142355
 H     14   8   7     2.066336679341   124.29860737   162.70349668
 H     14   8   7     2.066438641248   109.83099825    30.91968619
 H     14   8   7     2.065640093073    94.14997113   278.98839554
 S     14   8   7     3.407412034028    17.54650883   124.51798804

---------------------
BASIS SET INFORMATION
---------------------
There are 6 groups of distinct atoms

 Group   1 Type C   : 12s6p1d contracted to 5s4p1d pattern {63111/3111/1}
 Group   2 Type N   : 12s6p1d contracted to 5s4p1d pattern {63111/3111/1}
 Group   3 Type O   : 12s6p1d contracted to 5s4p1d pattern {63111/3111/1}
 Group   4 Type F   : 12s6p1d contracted to 5s4p1d pattern {63111/3111/1}
 Group   5 Type H   : 6s1p contracted to 4s1p pattern {3111/1}
 Group   6 Type S   : 14s10p1d contracted to 7s6p1d pattern {6311111/421111/1}

Atom   0C    basis set group =>   1
Atom   1N    basis set group =>   2
Atom   2C    basis set group =>   1
Atom   3C    basis set group =>   1
Atom   4C    basis set group =>   1
Atom   5C    basis set group =>   1
Atom   6N    basis set group =>   2
Atom   7O    basis set group =>   3
Atom   8O    basis set group =>   3
Atom   9F    basis set group =>   4
Atom  10H    basis set group =>   5
Atom  11H    basis set group =>   5
Atom  12H    basis set group =>   5
Atom  13C    basis set group =>   1
Atom  14H    basis set group =>   5
Atom  15H    basis set group =>   5
Atom  16H    basis set group =>   5
Atom  17S    basis set group =>   6
---------------------------------
AUXILIARY/J BASIS SET INFORMATION
---------------------------------
There are 6 groups of distinct atoms

 Group   1 Type C   : 12s5p4d2f1g contracted to 6s4p3d1f1g pattern {711111/2111/211/2/1}
 Group   2 Type N   : 12s5p4d2f1g contracted to 6s4p3d1f1g pattern {711111/2111/211/2/1}
 Group   3 Type O   : 12s5p4d2f1g contracted to 6s4p3d1f1g pattern {711111/2111/211/2/1}
 Group   4 Type F   : 12s5p4d2f1g contracted to 6s4p3d1f1g pattern {711111/2111/211/2/1}
 Group   5 Type H   : 5s2p1d contracted to 3s1p1d pattern {311/2/1}
 Group   6 Type S   : 14s5p5d2f1g contracted to 8s4p3d1f1g pattern {71111111/2111/311/2/1}

Atom   0C    basis set group =>   1
Atom   1N    basis set group =>   2
Atom   2C    basis set group =>   1
Atom   3C    basis set group =>   1
Atom   4C    basis set group =>   1
Atom   5C    basis set group =>   1
Atom   6N    basis set group =>   2
Atom   7O    basis set group =>   3
Atom   8O    basis set group =>   3
Atom   9F    basis set group =>   4
Atom  10H    basis set group =>   5
Atom  11H    basis set group =>   5
Atom  12H    basis set group =>   5
Atom  13C    basis set group =>   1
Atom  14H    basis set group =>   5
Atom  15H    basis set group =>   5
Atom  16H    basis set group =>   5
Atom  17S    basis set group =>   6


           ************************************************************
           *        Program running with 24 parallel MPI-processes    *
           *              working on a common directory               *
           ************************************************************
------------------------------------------------------------------------------
                           ORCA GTO INTEGRAL CALCULATION
                           -- RI-GTO INTEGRALS CHOSEN --
------------------------------------------------------------------------------
------------------------------------------------------------------------------
                   ___                                                        
                  /   \      - P O W E R E D   B Y -                         
                 /     \                                                     
                 |  |  |   _    _      __       _____    __    __             
                 |  |  |  | |  | |    /  \     |  _  \  |  |  /  |          
                  \  \/   | |  | |   /    \    | | | |  |  | /  /          
                 / \  \   | |__| |  /  /\  \   | |_| |  |  |/  /          
                |  |  |   |  __  | /  /__\  \  |    /   |      \           
                |  |  |   | |  | | |   __   |  |    \   |  |\   \          
                \     /   | |  | | |  |  |  |  | |\  \  |  | \   \       
                 \___/    |_|  |_| |__|  |__|  |_| \__\ |__|  \__/        
                                                                              
                      - O R C A' S   B I G   F R I E N D -                    
                                      &                                       
                       - I N T E G R A L  F E E D E R -                       
                                                                              
 v1 FN, 2020, v2 2021                                                         
------------------------------------------------------------------------------


Reading SHARK input file structure_opt.SHARKINP.tmp ... ok
----------------------
SHARK INTEGRAL PACKAGE
----------------------

Number of atoms                             ...     18
Number of basis functions                   ...    314
Number of shells                            ...    154
Maximum angular momentum                    ...      2
Integral batch strategy                     ... SHARK/LIBINT Hybrid
RI-J (if used) integral strategy            ... SPLIT-RIJ (Revised 2003 algorithm where possible)
Printlevel                                  ...      1
Contraction scheme used                     ... SEGMENTED contraction
Coulomb Range Separation                    ... NOT USED
Exchange Range Separation                   ... Long Range
   Mu parameter                             ...  0.300000
   Scaling (regular/separated)              ...  0.157706  0.842294
Finite Nucleus Model                        ... NOT USED
Auxiliary Coulomb fitting basis             ... AVAILABLE
   # of basis functions in Aux-J            ...    656
   # of shells in Aux-J                     ...    212
   Maximum angular momentum in Aux-J        ...      4
Auxiliary J/K fitting basis                 ... NOT available
Auxiliary Correlation fitting basis         ... NOT available
Auxiliary 'external' fitting basis          ... NOT available
Integral threshold                          ...     2.500000e-11
Primitive cut-off                           ...     2.500000e-12
Primitive pair pre-selection threshold      ...     2.500000e-12

Calculating pre-screening integrals         ... done (  0.0 sec) Dimension = 154
Organizing shell pair data                  ... done (  0.1 sec)
Shell pair information
Total number of shell pairs                 ...     11935
Shell pairs after pre-screening             ...      8438
Total number of primitive shell pairs       ...     38500
Primitive shell pairs kept                  ...     19474
          la=0 lb=0:   2552 shell pairs
          la=1 lb=0:   3480 shell pairs
          la=1 lb=1:   1208 shell pairs
          la=2 lb=0:    675 shell pairs
          la=2 lb=1:    471 shell pairs
          la=2 lb=2:     52 shell pairs

Calculating one electron integrals          ... done (  0.0 sec)
Calculating RI/J V-Matrix + Cholesky decomp.... done (  0.1 sec)
Calculating Nuclear repulsion               ... done (  0.0 sec) ENN=    653.384817962241 Eh

SHARK setup successfully completed in   1.1 seconds

Maximum memory used throughout the entire GTOINT-calculation: 17.2 MB


           ************************************************************
           *        Program running with 24 parallel MPI-processes    *
           *              working on a common directory               *
           ************************************************************
-------------------------------------------------------------------------------
                                 ORCA SCF
-------------------------------------------------------------------------------

------------
SCF SETTINGS
------------
Hamiltonian:
 Density Functional     Method          .... DFT(GTOs)
 Exchange Functional    Exchange        .... WB97X
 Correlation Functional Correlation     .... WB97X
 Gradients option       PostSCFGGA      .... off
 Hybrid DFT is turned on
   Fraction HF Exchange ScalHFX         ....  0.157706
   Scaling of DF-GGA-X  ScalDFX         ....  0.000000
   Scaling of DF-GGA-C  ScalDFC         ....  1.000000
   Scaling of DF-LDA-C  ScalLDAC        ....  1.000000
   Perturbative correction              ....  0.000000
   Density functional embedding theory  .... OFF
 Long-range corrected/Screened/Range-Separated Hybrid DFT is turned on
   Amount of maximum screened exact exchange              ....  0.842294
   Range separation parameter mu (erf(mu*r12)/r12)        ....  0.300000
 RI-approximation to the Coulomb term is turned on
   Number of AuxJ basis functions       .... 656
   RIJ-COSX (HFX calculated with COS-X)).... on


General Settings:
 Integral files         IntName         .... structure_opt
 Hartree-Fock type      HFTyp           .... RHF
 Total Charge           Charge          ....   -1
 Multiplicity           Mult            ....    1
 Number of Electrons    NEL             ....   98
 Basis Dimension        Dim             ....  314
 Nuclear Repulsion      ENuc            ....    653.3848179622 Eh

Convergence Acceleration:
 DIIS                   CNVDIIS         .... on
   Start iteration      DIISMaxIt       ....    12
   Startup error        DIISStart       ....  0.200000
   # of expansion vecs  DIISMaxEq       ....     5
   Bias factor          DIISBfac        ....   1.050
   Max. coefficient     DIISMaxC        ....  10.000
 Trust-Rad. Augm. Hess. CNVTRAH         .... auto
   Auto Start mean grad. ratio tolernc. ....  1.125000
   Auto Start start iteration           ....    20
   Auto Start num. interpolation iter.  ....    10
   Max. Number of Micro iterations      ....    16
   Max. Number of Macro iterations      .... Maxiter - #DIIS iter
   Number of Davidson start vectors     ....     2
   Converg. threshold I  (grad. norm)   ....   1.000e-05
   Converg. threshold II (energy diff.) ....   1.000e-08
   Grad. Scal. Fac. for Micro threshold ....   0.100
   Minimum threshold for Micro iter.    ....   0.010
   NR start threshold (gradient norm)   ....   0.001
   Initial trust radius                 ....   0.400
   Minimum AH scaling param. (alpha)    ....   1.000
   Maximum AH scaling param. (alpha)    .... 1000.000
   Orbital update algorithm             .... Taylor
   White noise on init. David. guess    .... on
   Maximum white noise                  ....   0.010
   Quad. conv. algorithm                .... NR
 SOSCF                  CNVSOSCF        .... on
   Start iteration      SOSCFMaxIt      ....   150
   Startup grad/error   SOSCFStart      ....  0.003300
 Level Shifting         CNVShift        .... on
   Level shift para.    LevelShift      ....    0.2500
   Turn off err/grad.   ShiftErr        ....    0.0010
 Zerner damping         CNVZerner       .... off
 Static damping         CNVDamp         .... on
   Fraction old density DampFac         ....    0.7000
   Max. Damping (<1)    DampMax         ....    0.9800
   Min. Damping (>=0)   DampMin         ....    0.0000
   Turn off err/grad.   DampErr         ....    0.1000
 Fernandez-Rico         CNVRico         .... off

SCF Procedure:
 Maximum # iterations   MaxIter         ....   125
 SCF integral mode      SCFMode         .... Direct
   Integral package                     .... SHARK and LIBINT hybrid scheme
 Reset frequency        DirectResetFreq ....    20
 Integral Threshold     Thresh          ....  2.500e-11 Eh
 Primitive CutOff       TCut            ....  2.500e-12 Eh

Convergence Tolerance:
 Convergence Check Mode ConvCheckMode   .... Total+1el-Energy
 Convergence forced     ConvForced      .... 0
 Energy Change          TolE            ....  1.000e-08 Eh
 1-El. energy change                    ....  1.000e-05 Eh
 Orbital Gradient       TolG            ....  1.000e-05
 Orbital Rotation angle TolX            ....  1.000e-05
 DIIS Error             TolErr          ....  5.000e-07


Diagonalization of the overlap matrix:
Smallest eigenvalue                        ... 4.472e-06
Time for diagonalization                   ...    0.032 sec
Threshold for overlap eigenvalues          ... 1.000e-08
Number of eigenvalues below threshold      ... 0
Time for construction of square roots      ...    0.055 sec
Total time needed                          ...    0.089 sec

Time for model grid setup =    0.728 sec

------------------------------
INITIAL GUESS: MODEL POTENTIAL
------------------------------
Loading Hartree-Fock densities                     ... done
Calculating cut-offs                               ... done
Initializing the effective Hamiltonian             ... done
Setting up the integral package (SHARK)            ... done
Starting the Coulomb interaction                   ... done (   0.1 sec)
Reading the grid                                   ... done
Mapping shells                                     ... done
Starting the XC term evaluation                    ... done (   0.0 sec)
  promolecular density results
     # of electrons  =     96.996288530
     EX              =    -96.552506490
     EC              =     -3.327217431
     EX+EC           =    -99.879723921
Transforming the Hamiltonian                       ... done (   0.0 sec)
Diagonalizing the Hamiltonian                      ... done (   0.0 sec)
Back transforming the eigenvectors                 ... done (   0.0 sec)
Now organizing SCF variables                       ... done
                      ------------------
                      INITIAL GUESS DONE (   0.9 sec)
                      ------------------
-------------------
DFT GRID GENERATION
-------------------

General Integration Accuracy     IntAcc      ... 4.388
Radial Grid Type                 RadialGrid  ... OptM3 with GC (2021)
Angular Grid (max. ang.)         AngularGrid ... 4 (Lebedev-302)
Angular grid pruning method      GridPruning ... 4 (adaptive)
Weight generation scheme         WeightScheme... Becke
Basis function cutoff            BFCut       ... 1.0000e-11
Integration weight cutoff        WCut        ... 1.0000e-14
Angular grids for H and He will be reduced by one unit
Partially contracted basis set               ... off
Rotationally invariant grid construction     ... off

Total number of grid points                  ...    98142
Total number of batches                      ...     1541
Average number of points per batch           ...       63
Average number of grid points per atom       ...     5452
Time for grid setup =    0.841 sec

--------------------
COSX GRID GENERATION
--------------------

GRIDX 1
-------
General Integration Accuracy     IntAcc      ... 3.816
Radial Grid Type                 RadialGrid  ... OptM3 with GC (2021)
Angular Grid (max. ang.)         AngularGrid ... 1 (Lebedev-50)
Angular grid pruning method      GridPruning ... 4 (adaptive)
Weight generation scheme         WeightScheme... Becke
Basis function cutoff            BFCut       ... 1.0000e-11
Integration weight cutoff        WCut        ... 1.0000e-14
Angular grids for H and He will be reduced by one unit
Partially contracted basis set               ... on
Rotationally invariant grid construction     ... off

Total number of grid points                  ...    12265
Total number of batches                      ...      203
Average number of points per batch           ...       60
Average number of grid points per atom       ...      681
UseSFitting                                  ... on

GRIDX 2
-------
General Integration Accuracy     IntAcc      ... 4.020
Radial Grid Type                 RadialGrid  ... OptM3 with GC (2021)
Angular Grid (max. ang.)         AngularGrid ... 2 (Lebedev-110)
Angular grid pruning method      GridPruning ... 4 (adaptive)
Weight generation scheme         WeightScheme... Becke
Basis function cutoff            BFCut       ... 1.0000e-11
Integration weight cutoff        WCut        ... 1.0000e-14
Angular grids for H and He will be reduced by one unit
Partially contracted basis set               ... on
Rotationally invariant grid construction     ... off

Total number of grid points                  ...    31182
Total number of batches                      ...      492
Average number of points per batch           ...       63
Average number of grid points per atom       ...     1732
UseSFitting                                  ... on

GRIDX 3
-------
General Integration Accuracy     IntAcc      ... 4.338
Radial Grid Type                 RadialGrid  ... OptM3 with GC (2021)
Angular Grid (max. ang.)         AngularGrid ... 3 (Lebedev-194)
Angular grid pruning method      GridPruning ... 4 (adaptive)
Weight generation scheme         WeightScheme... Becke
Basis function cutoff            BFCut       ... 1.0000e-11
Integration weight cutoff        WCut        ... 1.0000e-14
Angular grids for H and He will be reduced by one unit
Partially contracted basis set               ... on
Rotationally invariant grid construction     ... off

Total number of grid points                  ...    69408
Total number of batches                      ...     1093
Average number of points per batch           ...       63
Average number of grid points per atom       ...     3856
UseSFitting                                  ... on

Time for X-Grid setup             =    1.262 sec


--------------------
CPCM SOLVATION MODEL
--------------------
CPCM parameters:
  Epsilon                                         ...      78.3550
  Refrac                                          ...       1.3328
  Rsolv                                           ...       1.3000
  Surface type                                    ... GAUSSIAN VDW
  Epsilon function type                           ...         CPCM
Solvent:                                     ... WATER
SMD-CDS solvent descriptors:
  Soln                                       ...    1.3328
  Soln25                                     ...    1.3323
  Sola                                       ...    0.0000
  Solb                                       ...    0.0000
  Solg                                       ...    0.0000
  Solc                                       ...    0.0000
  Solh                                       ...    0.0000
Radii:
 Radius for C  used is    3.4960 Bohr (=   1.8500 Ang.)
 Radius for N  used is    3.5716 Bohr (=   1.8900 Ang.)
 Radius for O  used is    2.8724 Bohr (=   1.5200 Ang.)
 Radius for F  used is    3.2692 Bohr (=   1.7300 Ang.)
 Radius for H  used is    2.2677 Bohr (=   1.2000 Ang.)
 Radius for S  used is    4.7054 Bohr (=   2.4900 Ang.)
Calculating surface                               ...        done! (  0.0s)
GEPOL surface points                              ...         1149
GEPOL Volume                                      ...    1372.1852
GEPOL Surface-area                                ...     850.6095
Calculating surface distance matrix               ...        done! (  0.0s)
Performing Cholesky decomposition & store         ...        done! (  0.2s)
Overall time for CPCM initialization              ...                 0.2s
--------------
SCF ITERATIONS
--------------
ITER       Energy         Delta-E        Max-DP      RMS-DP      [F,P]     Damp
               ***  Starting incremental Fock matrix formation  ***
  0   -989.8659085179   0.000000000000 0.32828399  0.00311607  0.2373500 0.7000
  1   -990.0281135212  -0.162205003272 0.23617779  0.00243092  0.1141853 0.7000
                               ***Turning on DIIS***
  2   -990.1005456161  -0.072432094921 1.50497777  0.00886007  0.0583913 0.0000
  3   -990.2245798627  -0.124034246540 0.72902063  0.00383268  0.0550243 0.0000
  4   -990.2437194135  -0.019139550831 0.26058444  0.00138459  0.0124306 0.0000
  5   -990.2448937548  -0.001174341315 0.12902951  0.00070413  0.0061298 0.0000
                      *** Initiating the SOSCF procedure ***
                           *** Shutting down DIIS ***
                      *** Re-Reading the Fockian *** 
                      *** Removing any level shift *** 
ITER      Energy       Delta-E        Grad      Rot      Max-DP    RMS-DP
  6   -990.24512440  -0.0002306460  0.001494  0.001494  0.039930  0.000236
               *** Restarting incremental Fock matrix formation ***
  7   -990.24520788  -0.0000834802  0.000979  0.002402  0.027197  0.000341
  8   -990.24524831  -0.0000404271  0.000343  0.002504  0.018522  0.000248
  9   -990.24525444  -0.0000061343  0.000695  0.000731  0.014349  0.000177
 10   -990.24526146  -0.0000070148  0.000113  0.000193  0.002703  0.000034
 11   -990.24526152  -0.0000000647  0.000092  0.000126  0.001476  0.000020
 12   -990.24526189  -0.0000003665  0.000014  0.000041  0.004732  0.000026
 13   -990.24526189  -0.0000000040  0.000007  0.000031  0.006903  0.000042
 14   -990.24526189  -0.0000000017  0.000005  0.000013  0.003219  0.000024
                  ***Gradient check signals convergence***
              ***Rediagonalizing the Fockian in SOSCF/NRSCF***

               *****************************************************
               *                     SUCCESS                       *
               *           SCF CONVERGED AFTER  15 CYCLES          *
               *****************************************************

Old exchange energy                            =    -28.432787752 Eh
New exchange energy                            =    -28.432785195 Eh
Exchange energy change after final integration =      0.000002557 Eh
Total energy after final integration           =   -990.245259340 Eh
Final COS-X integration done in                =     3.133 sec

SMD CDS free energy correction energy :                 5.87328     Kcal/mol
Total Energy after SMD CDS correction =              -990.235899674 Eh

----------------
TOTAL SCF ENERGY
----------------

Total Energy       :         -990.23589967 Eh          -26945.68872 eV

Components:
Nuclear Repulsion  :          653.38481796 Eh           17779.50479 eV
Electronic Energy  :        -1643.62071764 Eh          -44725.19351 eV
One Electron Energy:        -2665.26679741 Eh          -72525.59669 eV
Two Electron Energy:         1021.64607977 Eh           27800.40318 eV
Max COSX asymmetry :            0.00000212 Eh               0.00006 eV
CPCM Dielectric    :           -0.14021982 Eh              -3.81558 eV
SMD CDS (Gcds)     :            0.00935967 Eh               0.25469 eV

Virial components:
Potential Energy   :        -1977.46949839 Eh          -53809.68068 eV
Kinetic Energy     :          987.23359871 Eh           26863.99196 eV
Virial Ratio       :            2.00304113


DFT components:
N(Alpha)           :       48.999642007496 electrons
N(Beta)            :       48.999642007496 electrons
N(Total)           :       97.999284014992 electrons
E(XC)              :      -73.338359261761 Eh       
DFET-embed. en.    :        0.000000000000 Eh       
CPCM Solvation Model Properties:
Surface-charge          :            0.94360443
Charge-correction       :           -0.00532261 Eh              -0.14484 eV
Free-energy (cav+disp)  :            0.00935967 Eh               0.25469 eV

---------------
SCF CONVERGENCE
---------------

  Last Energy change         ...   -2.3114e-09  Tolerance :   1.0000e-08
  Last MAX-Density change    ...    9.7700e-15  Tolerance :   1.0000e-07
  Last RMS-Density change    ...    6.0068e-17  Tolerance :   5.0000e-09
  Last Orbital Gradient      ...    1.9537e-06  Tolerance :   1.0000e-05
  Last Orbital Rotation      ...    1.8594e-06  Tolerance :   1.0000e-05

             **** THE GBW FILE WAS UPDATED (structure_opt.gbw) ****
             **** DENSITY structure_opt.scfp WAS UPDATED ****
             **** ENERGY FILE WAS UPDATED (structure_opt.en.tmp) ****
             **** THE GBW FILE WAS UPDATED (structure_opt.gbw) ****
             **** DENSITY structure_opt.scfp WAS UPDATED ****
----------------
ORBITAL ENERGIES
----------------

  NO   OCC          E(Eh)            E(eV) 
   0   2.0000     -88.720065     -2414.1957 
   1   2.0000     -24.793474      -674.6647 
   2   2.0000     -19.275745      -524.5197 
   3   2.0000     -19.244032      -523.6567 
   4   2.0000     -14.669950      -399.1896 
   5   2.0000     -14.435798      -392.8180 
   6   2.0000     -10.437906      -284.0299 
   7   2.0000     -10.364371      -282.0289 
   8   2.0000     -10.338458      -281.3237 
   9   2.0000     -10.321429      -280.8604 
  10   2.0000     -10.290764      -280.0259 
  11   2.0000     -10.235868      -278.5321 
  12   2.0000      -7.915954      -215.4041 
  13   2.0000      -5.879103      -159.9785 
  14   2.0000      -5.871706      -159.7772 
  15   2.0000      -5.871702      -159.7771 
  16   2.0000      -1.396508       -38.0009 
  17   2.0000      -1.348344       -36.6903 
  18   2.0000      -1.151609       -31.3369 
  19   2.0000      -1.109515       -30.1914 
  20   2.0000      -1.008614       -27.4458 
  21   2.0000      -0.943654       -25.6781 
  22   2.0000      -0.874207       -23.7884 
  23   2.0000      -0.836208       -22.7544 
  24   2.0000      -0.796885       -21.6843 
  25   2.0000      -0.769388       -20.9361 
  26   2.0000      -0.706165       -19.2157 
  27   2.0000      -0.686715       -18.6865 
  28   2.0000      -0.669583       -18.2203 
  29   2.0000      -0.665126       -18.0990 
  30   2.0000      -0.661869       -18.0104 
  31   2.0000      -0.633417       -17.2361 
  32   2.0000      -0.620513       -16.8850 
  33   2.0000      -0.615488       -16.7483 
  34   2.0000      -0.564000       -15.3472 
  35   2.0000      -0.537355       -14.6222 
  36   2.0000      -0.528179       -14.3725 
  37   2.0000      -0.528160       -14.3720 
  38   2.0000      -0.494447       -13.4546 
  39   2.0000      -0.494252       -13.4493 
  40   2.0000      -0.456204       -12.4139 
  41   2.0000      -0.432602       -11.7717 
  42   2.0000      -0.421775       -11.4771 
  43   2.0000      -0.416680       -11.3384 
  44   2.0000      -0.408275       -11.1097 
  45   2.0000      -0.390704       -10.6316 
  46   2.0000      -0.385173       -10.4811 
  47   2.0000      -0.258902        -7.0451 
  48   2.0000      -0.258871        -7.0443 
  49   0.0000      -0.064910        -1.7663 
  50   0.0000       0.022441         0.6106 
  51   0.0000       0.055124         1.5000 
  52   0.0000       0.055364         1.5065 
  53   0.0000       0.056933         1.5492 
  54   0.0000       0.067881         1.8471 
  55   0.0000       0.074141         2.0175 
  56   0.0000       0.085610         2.3296 
  57   0.0000       0.090561         2.4643 
  58   0.0000       0.090728         2.4688 
  59   0.0000       0.098911         2.6915 
  60   0.0000       0.113965         3.1012 
  61   0.0000       0.114963         3.1283 
  62   0.0000       0.125291         3.4094 
  63   0.0000       0.128721         3.5027 
  64   0.0000       0.129288         3.5181 
  65   0.0000       0.142838         3.8868 
  66   0.0000       0.143435         3.9031 
  67   0.0000       0.152083         4.1384 
  68   0.0000       0.157774         4.2932 
  69   0.0000       0.163937         4.4609 
  70   0.0000       0.169348         4.6082 
  71   0.0000       0.170435         4.6378 
  72   0.0000       0.173966         4.7338 
  73   0.0000       0.178014         4.8440 
  74   0.0000       0.181438         4.9372 
  75   0.0000       0.181901         4.9498 
  76   0.0000       0.191476         5.2103 
  77   0.0000       0.191981         5.2241 
  78   0.0000       0.194781         5.3003 
  79   0.0000       0.200079         5.4444 
  80   0.0000       0.206426         5.6171 
  81   0.0000       0.212131         5.7724 
  82   0.0000       0.220549         6.0014 
  83   0.0000       0.222294         6.0489 
  84   0.0000       0.233327         6.3491 
  85   0.0000       0.237002         6.4491 
  86   0.0000       0.247212         6.7270 
  87   0.0000       0.257579         7.0091 
  88   0.0000       0.260565         7.0903 
  89   0.0000       0.266872         7.2620 
  90   0.0000       0.267797         7.2871 
  91   0.0000       0.271039         7.3753 
  92   0.0000       0.278214         7.5706 
  93   0.0000       0.278247         7.5715 
  94   0.0000       0.287535         7.8242 
  95   0.0000       0.296325         8.0634 
  96   0.0000       0.303138         8.2488 
  97   0.0000       0.308067         8.3829 
  98   0.0000       0.312561         8.5052 
  99   0.0000       0.321637         8.7522 
 100   0.0000       0.326852         8.8941 
 101   0.0000       0.337495         9.1837 
 102   0.0000       0.349124         9.5001 
 103   0.0000       0.349432         9.5085 
 104   0.0000       0.360797         9.8178 
 105   0.0000       0.363479         9.8908 
 106   0.0000       0.369109        10.0440 
 107   0.0000       0.375283        10.2120 
 108   0.0000       0.396314        10.7843 
 109   0.0000       0.404717        11.0129 
 110   0.0000       0.408116        11.1054 
 111   0.0000       0.409647        11.1470 
 112   0.0000       0.419238        11.4080 
 113   0.0000       0.427127        11.6227 
 114   0.0000       0.437433        11.9032 
 115   0.0000       0.450189        12.2503 
 116   0.0000       0.452815        12.3217 
 117   0.0000       0.455128        12.3847 
 118   0.0000       0.467449        12.7199 
 119   0.0000       0.478356        13.0167 
 120   0.0000       0.491263        13.3679 
 121   0.0000       0.509365        13.8605 
 122   0.0000       0.518555        14.1106 
 123   0.0000       0.527354        14.3500 
 124   0.0000       0.527447        14.3526 
 125   0.0000       0.550024        14.9669 
 126   0.0000       0.587083        15.9753 
 127   0.0000       0.609693        16.5906 
 128   0.0000       0.612320        16.6621 
 129   0.0000       0.618479        16.8297 
 130   0.0000       0.626375        17.0445 
 131   0.0000       0.642396        17.4805 
 132   0.0000       0.647000        17.6058 
 133   0.0000       0.657715        17.8973 
 134   0.0000       0.667703        18.1691 
 135   0.0000       0.699906        19.0454 
 136   0.0000       0.701461        19.0877 
 137   0.0000       0.727885        19.8068 
 138   0.0000       0.743593        20.2342 
 139   0.0000       0.770735        20.9728 
 140   0.0000       0.770826        20.9752 
 141   0.0000       0.777806        21.1652 
 142   0.0000       0.811051        22.0698 
 143   0.0000       0.826197        22.4820 
 144   0.0000       0.836208        22.7544 
 145   0.0000       0.849349        23.1120 
 146   0.0000       0.851014        23.1573 
 147   0.0000       0.870027        23.6746 
 148   0.0000       0.897370        24.4187 
 149   0.0000       0.909355        24.7448 
 150   0.0000       0.918629        24.9972 
 151   0.0000       0.933179        25.3931 
 152   0.0000       0.953574        25.9481 
 153   0.0000       0.953814        25.9546 
 154   0.0000       0.959835        26.1185 
 155   0.0000       0.972147        26.4535 
 156   0.0000       0.976175        26.5631 
 157   0.0000       0.980092        26.6696 
 158   0.0000       1.002012        27.2661 
 159   0.0000       1.004326        27.3291 
 160   0.0000       1.004335        27.3293 
 161   0.0000       1.035950        28.1896 
 162   0.0000       1.047474        28.5032 
 163   0.0000       1.061582        28.8871 
 164   0.0000       1.073995        29.2249 
 165   0.0000       1.079502        29.3747 
 166   0.0000       1.083598        29.4862 
 167   0.0000       1.140586        31.0369 
 168   0.0000       1.145376        31.1673 
 169   0.0000       1.151398        31.3311 
 170   0.0000       1.172639        31.9091 
 171   0.0000       1.185433        32.2573 
 172   0.0000       1.198276        32.6068 
 173   0.0000       1.209727        32.9183 
 174   0.0000       1.251569        34.0569 
 175   0.0000       1.260682        34.3049 
 176   0.0000       1.276546        34.7366 
 177   0.0000       1.278594        34.7923 
 178   0.0000       1.279334        34.8125 
 179   0.0000       1.292499        35.1707 
 180   0.0000       1.297934        35.3186 
 181   0.0000       1.356601        36.9150 
 182   0.0000       1.393552        37.9205 
 183   0.0000       1.405412        38.2432 
 184   0.0000       1.470396        40.0115 
 185   0.0000       1.506158        40.9847 
 186   0.0000       1.550218        42.1836 
 187   0.0000       1.586828        43.1798 
 188   0.0000       1.589694        43.2578 
 189   0.0000       1.589709        43.2582 
 190   0.0000       1.617078        44.0029 
 191   0.0000       1.631432        44.3935 
 192   0.0000       1.654885        45.0317 
 193   0.0000       1.656947        45.0878 
 194   0.0000       1.692013        46.0420 
 195   0.0000       1.692918        46.0666 
 196   0.0000       1.703541        46.3557 
 197   0.0000       1.715081        46.6697 
 198   0.0000       1.748642        47.5830 
 199   0.0000       1.765063        48.0298 
 200   0.0000       1.786868        48.6232 
 201   0.0000       1.809100        49.2281 
 202   0.0000       1.809345        49.2348 
 203   0.0000       1.813003        49.3343 
 204   0.0000       1.842706        50.1426 
 205   0.0000       1.843113        50.1536 
 206   0.0000       1.868850        50.8540 
 207   0.0000       1.912067        52.0300 
 208   0.0000       1.933719        52.6192 
 209   0.0000       1.947938        53.0061 
 210   0.0000       1.968991        53.5790 
 211   0.0000       1.970739        53.6265 
 212   0.0000       1.990533        54.1652 
 213   0.0000       2.011905        54.7467 
 214   0.0000       2.031782        55.2876 
 215   0.0000       2.044941        55.6457 
 216   0.0000       2.050514        55.7973 
 217   0.0000       2.109988        57.4157 
 218   0.0000       2.140295        58.2404 
 219   0.0000       2.147248        58.4296 
 220   0.0000       2.168151        58.9984 
 221   0.0000       2.172214        59.1089 
 222   0.0000       2.176064        59.2137 
 223   0.0000       2.206205        60.0339 
 224   0.0000       2.292465        62.3811 
 225   0.0000       2.324044        63.2405 
 226   0.0000       2.331945        63.4554 
 227   0.0000       2.332683        63.4755 
 228   0.0000       2.399046        65.2814 
 229   0.0000       2.429074        66.0985 
 230   0.0000       2.493430        67.8497 
 231   0.0000       2.563280        69.7504 
 232   0.0000       2.588464        70.4357 
 233   0.0000       2.595393        70.6242 
 234   0.0000       2.603975        70.8578 
 235   0.0000       2.627158        71.4886 
 236   0.0000       2.658119        72.3311 
 237   0.0000       2.659376        72.3653 
 238   0.0000       2.673597        72.7523 
 239   0.0000       2.674360        72.7730 
 240   0.0000       2.692416        73.2644 
 241   0.0000       2.766262        75.2738 
 242   0.0000       2.784810        75.7785 
 243   0.0000       2.828301        76.9620 
 244   0.0000       2.839502        77.2668 
 245   0.0000       2.858074        77.7722 
 246   0.0000       2.867142        78.0189 
 247   0.0000       2.882859        78.4466 
 248   0.0000       2.893399        78.7334 
 249   0.0000       2.901423        78.9517 
 250   0.0000       2.930769        79.7503 
 251   0.0000       2.937188        79.9249 
 252   0.0000       2.959978        80.5451 
 253   0.0000       2.976015        80.9815 
 254   0.0000       2.986428        81.2648 
 255   0.0000       3.001280        81.6690 
 256   0.0000       3.007309        81.8330 
 257   0.0000       3.097212        84.2794 
 258   0.0000       3.152696        85.7892 
 259   0.0000       3.188631        86.7671 
 260   0.0000       3.268291        88.9347 
 261   0.0000       3.307405        89.9991 
 262   0.0000       3.307787        90.0095 
 263   0.0000       3.337422        90.8159 
 264   0.0000       3.368374        91.6581 
 265   0.0000       3.454014        93.9885 
 266   0.0000       3.496728        95.1508 
 267   0.0000       3.558373        96.8283 
 268   0.0000       3.593081        97.7727 
 269   0.0000       3.680740       100.1580 
 270   0.0000       3.703579       100.7795 
 271   0.0000       3.753142       102.1282 
 272   0.0000       3.853213       104.8513 
 273   0.0000       3.882955       105.6606 
 274   0.0000       3.889560       105.8403 
 275   0.0000       3.890968       105.8786 
 276   0.0000       3.903059       106.2076 
 277   0.0000       3.924241       106.7840 
 278   0.0000       4.010655       109.1355 
 279   0.0000       4.059240       110.4575 
 280   0.0000       4.119747       112.1040 
 281   0.0000       4.143508       112.7506 
 282   0.0000       4.168949       113.4429 
 283   0.0000       4.405288       119.8740 
 284   0.0000       4.477741       121.8455 
 285   0.0000       4.505535       122.6018 
 286   0.0000       4.763468       129.6206 
 287   0.0000       4.943496       134.5194 
 288   0.0000       5.072475       138.0291 
 289   0.0000       5.100366       138.7880 
 290   0.0000       5.190865       141.2506 
 291   0.0000       5.219050       142.0176 
 292   0.0000       5.314421       144.6128 
 293   0.0000       5.698340       155.0597 
 294   0.0000       6.130305       166.8141 
 295   0.0000       6.407334       174.3524 
 296   0.0000       6.538742       177.9282 
 297   0.0000       6.843706       186.2267 
 298   0.0000       7.976764       217.0588 
 299   0.0000      17.544478       477.4095 
 300   0.0000      17.545732       477.4436 
 301   0.0000      17.631996       479.7910 
 302   0.0000      23.648861       643.5182 
 303   0.0000      23.890096       650.0826 
 304   0.0000      23.983712       652.6300 
 305   0.0000      24.030034       653.8905 
 306   0.0000      24.070848       655.0011 
 307   0.0000      24.180978       657.9979 
 308   0.0000      35.375540       962.6174 
 309   0.0000      35.656714       970.2685 
 310   0.0000      49.899886      1357.8449 
 311   0.0000      49.965420      1359.6282 
 312   0.0000      66.792652      1817.5205 
 313   0.0000     188.965629      5142.0162 

--------------------
FRAGMENT INFORMATION
--------------------
Fragment  1:    0   1   2   3   4   5 
Fragment  2:    6   7   8   9  10  11  12 
Fragment  3:   13  14  15  16 
Fragment  4:   17 


                    ********************************
                    * MULLIKEN POPULATION ANALYSIS *
                    ********************************

-------------------------
MULLIKEN FRAGMENT CHARGES
-------------------------
 Fragment   0 :  -0.440386
 Fragment   1 :   0.440382
 Fragment   2 :  -0.028911
 Fragment   3 :  -0.971085
Sum of fragment charges:   -1.0000000

---------------------------------
MULLIKEN FRAGMENT OVERLAP CHARGES
---------------------------------
                  0          1          2          3    
      0      21.476161   0.630044  -0.000006  -0.000013
      1       0.630044  34.970241   0.000005   0.000157
      2      -0.000006   0.000005  11.656102  -0.694949
      3      -0.000013   0.000157  -0.694949  17.318488

-----------------------
MULLIKEN ATOMIC CHARGES
-----------------------
   0 C :   -0.042484
   1 N :   -0.205887
   2 C :   -0.290894
   3 C :   -0.269607
   4 C :    0.454713
   5 C :   -0.086228
   6 N :   -0.076110
   7 O :   -0.046881
   8 O :   -0.238504
   9 F :   -0.102251
  10 H :    0.296649
  11 H :    0.280912
  12 H :    0.326567
  13 C :   -0.409307
  14 H :    0.126621
  15 H :    0.126938
  16 H :    0.126837
  17 S :   -0.971085
Sum of atomic charges:   -1.0000000

--------------------------------
MULLIKEN REDUCED ORBITAL CHARGES
--------------------------------
  0 C s       :     3.280359  s :     3.280359
      pz      :     0.681513  p :     2.601657
      px      :     0.978721
      py      :     0.941423
      dz2     :     0.052756  d :     0.160467
      dxz     :     0.048849
      dyz     :     0.028449
      dx2y2   :     0.013770
      dxy     :     0.016644
  1 N s       :     3.625848  s :     3.625848
      pz      :     1.143318  p :     3.549512
      px      :     1.241444
      py      :     1.164750
      dz2     :     0.008167  d :     0.030527
      dxz     :     0.007239
      dyz     :     0.004758
      dx2y2   :     0.005505
      dxy     :     0.004859
  2 C s       :     3.373030  s :     3.373030
      pz      :     0.812608  p :     2.833715
      px      :     1.167441
      py      :     0.853666
      dz2     :     0.023580  d :     0.084148
      dxz     :     0.032196
      dyz     :     0.014803
      dx2y2   :     0.007221
      dxy     :     0.006348
  3 C s       :     3.217684  s :     3.217684
      pz      :     1.160932  p :     2.998761
      px      :     0.870609
      py      :     0.967220
      dz2     :     0.015295  d :     0.053162
      dxz     :     0.017413
      dyz     :     0.005092
      dx2y2   :     0.008213
      dxy     :     0.007149
  4 C s       :     2.496382  s :     2.496382
      pz      :     0.898654  p :     2.991812
      px      :     1.246511
      py      :     0.846647
      dz2     :     0.016546  d :     0.057093
      dxz     :     0.015857
      dyz     :     0.010570
      dx2y2   :     0.007215
      dxy     :     0.006905
  5 C s       :     3.313974  s :     3.313974
      pz      :     1.090388  p :     2.699112
      px      :     0.485167
      py      :     1.123557
      dz2     :     0.013629  d :     0.073142
      dxz     :     0.029767
      dyz     :     0.010340
      dx2y2   :     0.011217
      dxy     :     0.008191
  6 N s       :     3.593105  s :     3.593105
      pz      :     1.058910  p :     3.374014
      px      :     1.213012
      py      :     1.102093
      dz2     :     0.027714  d :     0.108992
      dxz     :     0.039369
      dyz     :     0.023077
      dx2y2   :     0.008550
      dxy     :     0.010282
  7 O s       :     3.774906  s :     3.774906
      pz      :     1.025350  p :     4.253268
      px      :     1.828025
      py      :     1.399894
      dz2     :     0.009714  d :     0.018707
      dxz     :     0.003515
      dyz     :     0.005310
      dx2y2   :     0.000102
      dxy     :     0.000067
  8 O s       :     3.824970  s :     3.824970
      pz      :     1.624652  p :     4.401419
      px      :     1.218156
      py      :     1.558611
      dz2     :     0.001058  d :     0.012115
      dxz     :     0.004900
      dyz     :     0.000879
      dx2y2   :     0.003118
      dxy     :     0.002159
  9 F s       :     3.918180  s :     3.918180
      pz      :     1.388784  p :     5.178737
      px      :     1.915805
      py      :     1.874148
      dz2     :     0.003098  d :     0.005334
      dxz     :     0.000998
      dyz     :     0.001202
      dx2y2   :     0.000027
      dxy     :     0.000009
 10 H s       :     0.679450  s :     0.679450
      pz      :     0.005481  p :     0.023901
      px      :     0.014121
      py      :     0.004298
 11 H s       :     0.694126  s :     0.694126
      pz      :     0.016372  p :     0.024962
      px      :     0.003655
      py      :     0.004935
 12 H s       :     0.647913  s :     0.647913
      pz      :     0.007741  p :     0.025520
      px      :     0.013378
      py      :     0.004401
 13 C s       :     3.268523  s :     3.268523
      pz      :     0.998898  p :     3.088173
      px      :     1.039738
      py      :     1.049537
      dz2     :     0.015102  d :     0.052612
      dxz     :     0.009065
      dyz     :     0.008610
      dx2y2   :     0.015629
      dxy     :     0.004205
 14 H s       :     0.850648  s :     0.850648
      pz      :     0.010686  p :     0.022732
      px      :     0.005986
      py      :     0.006059
 15 H s       :     0.850340  s :     0.850340
      pz      :     0.004683  p :     0.022721
      px      :     0.004730
      py      :     0.013309
 16 H s       :     0.850406  s :     0.850406
      pz      :     0.004682  p :     0.022756
      px      :     0.012911
      py      :     0.005163
 17 S s       :     6.023240  s :     6.023240
      pz      :     3.293806  p :    10.916436
      px      :     3.754664
      py      :     3.867966
      dz2     :     0.008375  d :     0.031409
      dxz     :     0.011145
      dyz     :     0.007241
      dx2y2   :     0.001945
      dxy     :     0.002703


                     *******************************
                     * LOEWDIN POPULATION ANALYSIS *
                     *******************************

------------------------
LOEWDIN FRAGMENT CHARGES
------------------------
 Fragment   0 :   0.057487
 Fragment   1 :  -0.057497
 Fragment   2 :  -0.355611
 Fragment   3 :  -0.644379

----------------------------
LOEWDIN FRAGMENT BOND ORDERS
----------------------------
                  0          1          2          3    
      0      56.961475   6.778676   0.000003   0.000021
      1       6.778676  43.787851   0.000011   0.000065
      2       0.000003   0.000011  15.420054   1.742636
      3       0.000021   0.000065   1.742636  16.644379

----------------------
LOEWDIN ATOMIC CHARGES
----------------------
   0 C :    0.111503
   1 N :   -0.111868
   2 C :    0.077296
   3 C :   -0.033855
   4 C :    0.078076
   5 C :   -0.063665
   6 N :    0.241348
   7 O :   -0.153562
   8 O :   -0.338966
   9 F :   -0.078059
  10 H :    0.087017
  11 H :    0.084548
  12 H :    0.100177
  13 C :   -0.358889
  14 H :    0.001108
  15 H :    0.001233
  16 H :    0.000936
  17 S :   -0.644379

-------------------------------
LOEWDIN REDUCED ORBITAL CHARGES
-------------------------------
  0 C s       :     2.743719  s :     2.743719
      pz      :     0.849379  p :     2.815651
      px      :     1.080464
      py      :     0.885808
      dz2     :     0.112510  d :     0.329126
      dxz     :     0.100726
      dyz     :     0.050396
      dx2y2   :     0.033875
      dxy     :     0.031619
  1 N s       :     3.151624  s :     3.151624
      pz      :     1.301205  p :     3.903405
      px      :     1.416906
      py      :     1.185294
      dz2     :     0.017389  d :     0.056839
      dxz     :     0.015718
      dyz     :     0.007791
      dx2y2   :     0.009544
      dxy     :     0.006397
  2 C s       :     2.786882  s :     2.786882
      pz      :     1.032892  p :     2.953977
      px      :     1.096528
      py      :     0.824558
      dz2     :     0.060302  d :     0.181845
      dxz     :     0.069057
      dyz     :     0.027982
      dx2y2   :     0.014015
      dxy     :     0.010489
  3 C s       :     2.781248  s :     2.781248
      pz      :     1.081332  p :     3.128247
      px      :     1.092140
      py      :     0.954775
      dz2     :     0.034119  d :     0.124360
      dxz     :     0.045069
      dyz     :     0.008010
      dx2y2   :     0.022212
      dxy     :     0.014950
  4 C s       :     2.779215  s :     2.779215
      pz      :     1.065827  p :     3.014413
      px      :     1.108247
      py      :     0.840339
      dz2     :     0.040903  d :     0.128295
      dxz     :     0.039167
      dyz     :     0.021252
      dx2y2   :     0.015050
      dxy     :     0.011923
  5 C s       :     2.757955  s :     2.757955
      pz      :     1.088430  p :     3.125384
      px      :     0.957293
      py      :     1.079661
      dz2     :     0.039912  d :     0.180325
      dxz     :     0.071775
      dyz     :     0.019832
      dx2y2   :     0.031418
      dxy     :     0.017389
  6 N s       :     3.052068  s :     3.052068
      pz      :     1.206023  p :     3.500223
      px      :     1.215012
      py      :     1.079188
      dz2     :     0.060432  d :     0.206361
      dxz     :     0.076205
      dyz     :     0.035692
      dx2y2   :     0.017514
      dxy     :     0.016518
  7 O s       :     3.581233  s :     3.581233
      pz      :     1.283630  p :     4.540008
      px      :     1.838775
      py      :     1.417603
      dz2     :     0.020441  d :     0.032321
      dxz     :     0.005159
      dyz     :     0.006532
      dx2y2   :     0.000119
      dxy     :     0.000071
  8 O s       :     3.667378  s :     3.667378
      pz      :     1.709894  p :     4.651105
      px      :     1.369844
      py      :     1.571367
      dz2     :     0.001545  d :     0.020483
      dxz     :     0.009264
      dyz     :     0.001173
      dx2y2   :     0.005712
      dxy     :     0.002790
  9 F s       :     3.715004  s :     3.715004
      pz      :     1.535115  p :     5.355683
      px      :     1.934336
      py      :     1.886232
      dz2     :     0.004767  d :     0.007372
      dxz     :     0.001184
      dyz     :     0.001375
      dx2y2   :     0.000037
      dxy     :     0.000009
 10 H s       :     0.842583  s :     0.842583
      pz      :     0.016676  p :     0.070400
      px      :     0.042295
      py      :     0.011429
 11 H s       :     0.843001  s :     0.843001
      pz      :     0.047834  p :     0.072451
      px      :     0.011210
      py      :     0.013407
 12 H s       :     0.826593  s :     0.826593
      pz      :     0.023098  p :     0.073230
      px      :     0.038715
      py      :     0.011417
 13 C s       :     2.858094  s :     2.858094
      pz      :     1.143884  p :     3.393883
      px      :     1.127174
      py      :     1.122825
      dz2     :     0.031006  d :     0.106912
      dxz     :     0.019467
      dyz     :     0.017673
      dx2y2   :     0.030869
      dxy     :     0.007898
 14 H s       :     0.927111  s :     0.927111
      pz      :     0.035502  p :     0.071781
      px      :     0.018063
      py      :     0.018216
 15 H s       :     0.926991  s :     0.926991
      pz      :     0.014478  p :     0.071775
      px      :     0.013970
      py      :     0.043327
 16 H s       :     0.927207  s :     0.927207
      pz      :     0.014384  p :     0.071857
      px      :     0.042221
      py      :     0.015252
 17 S s       :     5.614017  s :     5.614017
      pz      :     3.401770  p :    10.993247
      px      :     3.752353
      py      :     3.839124
      dz2     :     0.009838  d :     0.037115
      dxz     :     0.013338
      dyz     :     0.008558
      dx2y2   :     0.002208
      dxy     :     0.003173


                      *****************************
                      * MAYER POPULATION ANALYSIS *
                      *****************************

  NA   - Mulliken gross atomic population
  ZA   - Total nuclear charge
  QA   - Mulliken gross atomic charge
  VA   - Mayer's total valence
  BVA  - Mayer's bonded valence
  FA   - Mayer's free valence

  ATOM       NA         ZA         QA         VA         BVA        FA
  0 C      6.0425     6.0000    -0.0425     4.3579     4.3579     0.0000
  1 N      7.2059     7.0000    -0.2059     2.7038     2.7038     0.0000
  2 C      6.2909     6.0000    -0.2909     3.9775     3.9775     0.0000
  3 C      6.2696     6.0000    -0.2696     4.3706     4.3706     0.0000
  4 C      5.5453     6.0000     0.4547     4.1003     4.1003     0.0000
  5 C      6.0862     6.0000    -0.0862     3.3352     3.3352     0.0000
  6 N      7.0761     7.0000    -0.0761     3.9157     3.9157    -0.0000
  7 O      8.0469     8.0000    -0.0469     2.1915     2.1915    -0.0000
  8 O      8.2385     8.0000    -0.2385     1.9957     1.9957     0.0000
  9 F      9.1023     9.0000    -0.1023     0.9621     0.9621     0.0000
 10 H      0.7034     1.0000     0.2966     0.8709     0.8709    -0.0000
 11 H      0.7191     1.0000     0.2809     0.9042     0.9042    -0.0000
 12 H      0.6734     1.0000     0.3266     0.8330     0.8330     0.0000
 13 C      6.4093     6.0000    -0.4093     3.5645     3.5645     0.0000
 14 H      0.8734     1.0000     0.1266     0.9425     0.9425     0.0000
 15 H      0.8731     1.0000     0.1269     0.9426     0.9426    -0.0000
 16 H      0.8732     1.0000     0.1268     0.9421     0.9421     0.0000
 17 S     16.9711    16.0000    -0.9711     0.5895     0.5895     0.0000

  Mayer bond orders larger than 0.100000
B(  0-C ,  1-N ) :   1.2995 B(  0-C ,  2-C ) :   0.1899 B(  0-C ,  3-C ) :   0.1536 
B(  0-C ,  4-C ) :   0.2870 B(  0-C ,  5-C ) :   1.2227 B(  0-C ,  6-N ) :  -0.1818 
B(  0-C ,  9-F ) :   1.3998 B(  1-N ,  2-C ) :   1.1811 B(  1-N ,  5-C ) :   0.1730 
B(  2-C ,  3-C ) :   1.5921 B(  2-C , 10-H ) :   0.8820 B(  3-C ,  4-C ) :   1.4919 
B(  3-C ,  8-O ) :   0.1330 B(  3-C , 11-H ) :   0.8421 B(  4-C ,  5-C ) :   1.5501 
[...]
 289   0.0000       5.122875       139.4005 
 290   0.0000       5.205671       141.6535 
 291   0.0000       5.281491       143.7167 
 292   0.0000       5.370173       146.1298 
 293   0.0000       5.848735       159.1522 
 294   0.0000       6.340750       172.5406 
 295   0.0000       6.415913       174.5859 
 296   0.0000       6.549470       178.2201 
 297   0.0000       6.865072       186.8081 
 298   0.0000       7.976779       217.0592 
 299   0.0000      17.544489       477.4098 
 300   0.0000      17.545750       477.4441 
 301   0.0000      17.632033       479.7920 
 302   0.0000      23.700626       644.9268 
 303   0.0000      23.954067       651.8233 
 304   0.0000      24.019740       653.6104 
 305   0.0000      24.029546       653.8772 
 306   0.0000      24.134235       656.7259 
 307   0.0000      24.245342       659.7493 
 308   0.0000      35.451560       964.6860 
 309   0.0000      35.736458       972.4385 
 310   0.0000      49.923837      1358.4967 
 311   0.0000      50.032400      1361.4508 
 312   0.0000      66.806467      1817.8964 
 313   0.0000     188.965641      5142.0165 

--------------------
FRAGMENT INFORMATION
--------------------
Fragment  1:    0   1   2   3   4   5 
Fragment  2:    6   7   8   9  10  11  12 
Fragment  3:   13  14  15  16 
Fragment  4:   17 


                    ********************************
                    * MULLIKEN POPULATION ANALYSIS *
                    ********************************

-------------------------
MULLIKEN FRAGMENT CHARGES
-------------------------
 Fragment   0 :  -0.477902
 Fragment   1 :   0.477902
 Fragment   2 :  -0.028989
 Fragment   3 :  -0.971011
Sum of fragment charges:   -1.0000000

---------------------------------
MULLIKEN FRAGMENT OVERLAP CHARGES
---------------------------------
                  0          1          2          3    
      0      19.024061   0.526163  -0.000005  -0.000010
      1       0.526163  35.035655   0.000005   0.000161
      2      -0.000005   0.000005  11.656124  -0.695134
      3      -0.000010   0.000161  -0.695134  17.318502

-----------------------
MULLIKEN ATOMIC CHARGES
-----------------------
   0 C :   -0.006186
   1 N :   -0.197837
   2 C :   -0.275542
   3 C :   -0.343610
   4 C :    0.536337
   5 C :   -0.191064
   6 N :   -0.012688
   7 O :   -0.158312
   8 O :   -0.117847
   9 F :   -0.119626
  10 H :    0.284535
  11 H :    0.278290
  12 H :    0.323551
  13 C :   -0.409330
  14 H :    0.126636
  15 H :    0.126959
  16 H :    0.126745
  17 S :   -0.971011
Sum of atomic charges:   -1.0000000

--------------------------------
MULLIKEN REDUCED ORBITAL CHARGES
--------------------------------
  0 C s       :     3.236544  s :     3.236544
      pz      :     0.675385  p :     2.599715
      px      :     0.978463
      py      :     0.945867
      dz2     :     0.057103  d :     0.169928
      dxz     :     0.050473
      dyz     :     0.029375
      dx2y2   :     0.014626
      dxy     :     0.018351
  1 N s       :     3.605940  s :     3.605940
      pz      :     1.152168  p :     3.557395
      px      :     1.250918
      py      :     1.154310
      dz2     :     0.008749  d :     0.034501
      dxz     :     0.008595
      dyz     :     0.005242
      dx2y2   :     0.006089
      dxy     :     0.005827
  2 C s       :     3.311721  s :     3.311721
      pz      :     0.826240  p :     2.874875
      px      :     1.176096
      py      :     0.872538
      dz2     :     0.025143  d :     0.088945
      dxz     :     0.033509
      dyz     :     0.015898
      dx2y2   :     0.007889
      dxy     :     0.006505
  3 C s       :     3.272116  s :     3.272116
      pz      :     1.160889  p :     3.015851
      px      :     0.885425
      py      :     0.969537
      dz2     :     0.015895  d :     0.055643
      dxz     :     0.018405
      dyz     :     0.005649
      dx2y2   :     0.008176
      dxy     :     0.007518
  4 C s       :     2.377531  s :     2.377531
      pz      :     0.928823  p :     3.026462
      px      :     1.247793
      py      :     0.849846
      dz2     :     0.017194  d :     0.059670
      dxz     :     0.016145
      dyz     :     0.011298
      dx2y2   :     0.007808
      dxy     :     0.007225
  5 C s       :     3.369602  s :     3.369602
      pz      :     1.114700  p :     2.747891
      px      :     0.505352
      py      :     1.127838
      dz2     :     0.013177  d :     0.073572
      dxz     :     0.030868
      dyz     :     0.010300
      dx2y2   :     0.011076
      dxy     :     0.008151
  6 N s       :     3.490956  s :     3.490956
      pz      :     1.040611  p :     3.382849
      px      :     1.233408
      py      :     1.108830
      dz2     :     0.038157  d :     0.138883
      dxz     :     0.045063
      dyz     :     0.029102
      dx2y2   :     0.011919
      dxy     :     0.014643
  7 O s       :     3.801167  s :     3.801167
      pz      :     1.022591  p :     4.338968
      px      :     1.839535
      py      :     1.476842
      dz2     :     0.009751  d :     0.018177
      dxz     :     0.003264
      dyz     :     0.005002
      dx2y2   :     0.000096
      dxy     :     0.000063
  8 O s       :     3.784762  s :     3.784762
      pz      :     1.548327  p :     4.312947
      px      :     1.332302
      py      :     1.432319
      dz2     :     0.002431  d :     0.020138
      dxz     :     0.007429
      dyz     :     0.002090
      dx2y2   :     0.004186
      dxy     :     0.004001
  9 F s       :     3.917387  s :     3.917387
      pz      :     1.399150  p :     5.197009
      px      :     1.918570
      py      :     1.879289
      dz2     :     0.003047  d :     0.005230
      dxz     :     0.000973
      dyz     :     0.001171
      dx2y2   :     0.000030
      dxy     :     0.000010
 10 H s       :     0.692175  s :     0.692175
      pz      :     0.004497  p :     0.023290
      px      :     0.014469
      py      :     0.004324
 11 H s       :     0.696523  s :     0.696523
      pz      :     0.016405  p :     0.025188
      px      :     0.003792
      py      :     0.004991
 12 H s       :     0.650604  s :     0.650604
      pz      :     0.007445  p :     0.025845
      px      :     0.013973
      py      :     0.004427
 13 C s       :     3.268636  s :     3.268636
      pz      :     0.998781  p :     3.088084
      px      :     1.039698
      py      :     1.049605
      dz2     :     0.015093  d :     0.052610
      dxz     :     0.009094
      dyz     :     0.008605
      dx2y2   :     0.015607
      dxy     :     0.004211
 14 H s       :     0.850633  s :     0.850633
      pz      :     0.010677  p :     0.022731
      px      :     0.005998
      py      :     0.006056
 15 H s       :     0.850319  s :     0.850319
      pz      :     0.004683  p :     0.022722
      px      :     0.004727
      py      :     0.013312
 16 H s       :     0.850516  s :     0.850516
      pz      :     0.004674  p :     0.022738
      px      :     0.012902
      py      :     0.005162
 17 S s       :     6.023280  s :     6.023280
      pz      :     3.292377  p :    10.916320
      px      :     3.755388
      py      :     3.868556
      dz2     :     0.008411  d :     0.031411
      dxz     :     0.011140
      dyz     :     0.007234
      dx2y2   :     0.001939
      dxy     :     0.002687


                     *******************************
                     * LOEWDIN POPULATION ANALYSIS *
                     *******************************

------------------------
LOEWDIN FRAGMENT CHARGES
------------------------
 Fragment   0 :   0.031377
 Fragment   1 :  -0.031384
 Fragment   2 :  -0.355634
 Fragment   3 :  -0.644359

----------------------------
LOEWDIN FRAGMENT BOND ORDERS
----------------------------
                  0          1          2          3    
      0      57.200161   6.725351   0.000003   0.000022
      1       6.725351  44.209143   0.000011   0.000070
      2       0.000003   0.000011  15.419901   1.742692
      3       0.000022   0.000070   1.742692  16.644359

----------------------
LOEWDIN ATOMIC CHARGES
----------------------
   0 C :    0.082285
   1 N :   -0.081971
   2 C :    0.056382
   3 C :   -0.034127
   4 C :    0.073201
   5 C :   -0.064393
   6 N :    0.202661
   7 O :   -0.219315
   8 O :   -0.194360
   9 F :   -0.088845
  10 H :    0.083380
  11 H :    0.085651
  12 H :    0.099443
  13 C :   -0.358970
  14 H :    0.001093
  15 H :    0.001211
  16 H :    0.001032
  17 S :   -0.644359

-------------------------------
LOEWDIN REDUCED ORBITAL CHARGES
-------------------------------
  0 C s       :     2.731143  s :     2.731143
      pz      :     0.851652  p :     2.835959
      px      :     1.095759
      py      :     0.888548
      dz2     :     0.121710  d :     0.350613
      dxz     :     0.104128
      dyz     :     0.052060
      dx2y2   :     0.037203
      dxy     :     0.035512
  1 N s       :     3.109106  s :     3.109106
      pz      :     1.300687  p :     3.907927
      px      :     1.433512
      py      :     1.173728
      dz2     :     0.018996  d :     0.064938
      dxz     :     0.018331
      dyz     :     0.009081
      dx2y2   :     0.010717
      dxy     :     0.007812
  2 C s       :     2.774369  s :     2.774369
      pz      :     1.042607  p :     2.975568
      px      :     1.092437
      py      :     0.840524
      dz2     :     0.064272  d :     0.193681
      dxz     :     0.072919
      dyz     :     0.030604
      dx2y2   :     0.015179
      dxy     :     0.010707
  3 C s       :     2.772489  s :     2.772489
      pz      :     1.079567  p :     3.132146
      px      :     1.096730
      py      :     0.955849
      dz2     :     0.035215  d :     0.129492
      dxz     :     0.047265
      dyz     :     0.008778
      dx2y2   :     0.022395
      dxy     :     0.015840
  4 C s       :     2.769176  s :     2.769176
      pz      :     1.074698  p :     3.022816
      px      :     1.105171
      py      :     0.842947
      dz2     :     0.042532  d :     0.134807
      dxz     :     0.040601
      dyz     :     0.022838
      dx2y2   :     0.016222
      dxy     :     0.012615
  5 C s       :     2.753216  s :     2.753216
      pz      :     1.090437  p :     3.129170
      px      :     0.958563
      py      :     1.080170
      dz2     :     0.039650  d :     0.182007
      dxz     :     0.074017
      dyz     :     0.020022
      dx2y2   :     0.030955
      dxy     :     0.017363
  6 N s       :     2.997900  s :     2.997900
      pz      :     1.219775  p :     3.530720
      px      :     1.230437
      py      :     1.080507
      dz2     :     0.080799  d :     0.268719
      dxz     :     0.092483
      dyz     :     0.045988
      dx2y2   :     0.025578
      dxy     :     0.023871
  7 O s       :     3.574495  s :     3.574495
      pz      :     1.275327  p :     4.613182
      px      :     1.847503
      py      :     1.490351
      dz2     :     0.020461  d :     0.031638
      dxz     :     0.004834
      dyz     :     0.006160
      dx2y2   :     0.000117
      dxy     :     0.000067
  8 O s       :     3.548733  s :     3.548733
      pz      :     1.672520  p :     4.610356
      px      :     1.487943
      py      :     1.449893
      dz2     :     0.003693  d :     0.035271
      dxz     :     0.015327
      dyz     :     0.002842
      dx2y2   :     0.008165
      dxy     :     0.005243
  9 F s       :     3.713842  s :     3.713842
      pz      :     1.539789  p :     5.367746
      px      :     1.937244
      py      :     1.890713
      dz2     :     0.004690  d :     0.007256
      dxz     :     0.001171
      dyz     :     0.001345
      dx2y2   :     0.000040
      dxy     :     0.000010
 10 H s       :     0.848020  s :     0.848020
      pz      :     0.014073  p :     0.068600
      px      :     0.042846
      py      :     0.011681
 11 H s       :     0.842178  s :     0.842178
      pz      :     0.047382  p :     0.072171
      px      :     0.011379
      py      :     0.013409
 12 H s       :     0.827107  s :     0.827107
      pz      :     0.021870  p :     0.073451
      px      :     0.040139
      py      :     0.011442
 13 C s       :     2.858245  s :     2.858245
      pz      :     1.143963  p :     3.393823
      px      :     1.127038
      py      :     1.122821
      dz2     :     0.030995  d :     0.106902
      dxz     :     0.019520
      dyz     :     0.017660
      dx2y2   :     0.030821
      dxy     :     0.007906
 14 H s       :     0.927127  s :     0.927127
      pz      :     0.035473  p :     0.071780
      px      :     0.018101
      py      :     0.018206
 15 H s       :     0.927009  s :     0.927009
      pz      :     0.014480  p :     0.071780
      px      :     0.013962
      py      :     0.043337
 16 H s       :     0.927195  s :     0.927195
      pz      :     0.014357  p :     0.071773
      px      :     0.042174
      py      :     0.015242
 17 S s       :     5.614034  s :     5.614034
      pz      :     3.400709  p :    10.993208
      px      :     3.752923
      py      :     3.839575
      dz2     :     0.009882  d :     0.037118
      dxz     :     0.013332
      dyz     :     0.008549
      dx2y2   :     0.002200
      dxy     :     0.003154


                      *****************************
                      * MAYER POPULATION ANALYSIS *
                      *****************************

  NA   - Mulliken gross atomic population
  ZA   - Total nuclear charge
  QA   - Mulliken gross atomic charge
  VA   - Mayer's total valence
  BVA  - Mayer's bonded valence
  FA   - Mayer's free valence

  ATOM       NA         ZA         QA         VA         BVA        FA
  0 C      6.0062     6.0000    -0.0062     4.2733     4.2733     0.0000
  1 N      7.1978     7.0000    -0.1978     2.7302     2.7302     0.0000
  2 C      6.2755     6.0000    -0.2755     4.0215     4.0215    -0.0000
  3 C      6.3436     6.0000    -0.3436     4.5233     4.5233     0.0000
  4 C      5.4637     6.0000     0.5363     3.9868     3.9868    -0.0000
  5 C      6.1911     6.0000    -0.1911     3.3654     3.3654     0.0000
  6 N      7.0127     7.0000    -0.0127     4.0117     4.0117     0.0000
  7 O      8.1583     8.0000    -0.1583     2.1073     2.1073    -0.0000
  8 O      8.1178     8.0000    -0.1178     2.1941     2.1941     0.0000
  9 F      9.1196     9.0000    -0.1196     0.9243     0.9243     0.0000
 10 H      0.7155     1.0000     0.2845     0.8736     0.8736     0.0000
 11 H      0.7217     1.0000     0.2783     0.9090     0.9090     0.0000
 12 H      0.6764     1.0000     0.3236     0.8342     0.8342    -0.0000
 13 C      6.4093     6.0000    -0.4093     3.5644     3.5644    -0.0000
 14 H      0.8734     1.0000     0.1266     0.9425     0.9425    -0.0000
 15 H      0.8730     1.0000     0.1270     0.9426     0.9426    -0.0000
 16 H      0.8733     1.0000     0.1267     0.9421     0.9421     0.0000
 17 S     16.9710    16.0000    -0.9710     0.5894     0.5894     0.0000

  Mayer bond orders larger than 0.100000
B(  0-C ,  1-N ) :   1.3036 B(  0-C ,  2-C ) :   0.1722 B(  0-C ,  3-C ) :   0.1823 
B(  0-C ,  4-C ) :   0.2390 B(  0-C ,  5-C ) :   1.2525 B(  0-C ,  6-N ) :  -0.1856 
B(  0-C ,  8-O ) :  -0.1078 B(  0-C ,  9-F ) :   1.3465 B(  1-N ,  2-C ) :   1.1688 
B(  1-N ,  5-C ) :   0.1952 B(  2-C ,  3-C ) :   1.6701 B(  2-C , 10-H ) :   0.8833 
B(  3-C ,  4-C ) :   1.4154 B(  3-C ,  5-C ) :   0.1661 B(  3-C ,  8-O ) :   0.1614 
B(  3-C , 11-H ) :   0.8372 B(  4-C ,  5-C ) :   1.5034 B(  4-C ,  8-O ) :   0.2450 
B(  4-C ,  9-F ) :  -0.1251 B(  4-C , 12-H ) :   0.7223 B(  5-C ,  6-N ) :   0.6619 
B(  5-C ,  7-O ) :  -0.1176 B(  5-C ,  8-O ) :  -0.2111 B(  5-C ,  9-F ) :  -0.3339 
B(  5-C , 12-H ) :   0.1387 B(  6-N ,  7-O ) :   1.8202 B(  6-N ,  8-O ) :   1.8443 
B(  7-O ,  8-O ) :   0.2472 B( 13-C , 14-H ) :   0.9810 B( 13-C , 15-H ) :   0.9815 
B( 13-C , 16-H ) :   0.9822 B( 13-C , 17-S ) :   0.6197 

-------
TIMINGS
-------

Total SCF time: 0 days 0 hours 0 min 16 sec 

Total time                  ....      16.864 sec
Sum of individual times     ....      16.214 sec  ( 96.1%)

Fock matrix formation       ....      14.411 sec  ( 85.5%)
  Split-RI-J                ....       0.870 sec  (  6.0% of F)
  Chain of spheres X        ....      10.187 sec  ( 70.7% of F)
  XC integration            ....       1.946 sec  ( 13.5% of F)
    Basis function eval.    ....       0.132 sec  (  6.8% of XC)
    Density eval.           ....       0.132 sec  (  6.8% of XC)
    XC-Functional eval.     ....       0.049 sec  (  2.5% of XC)
    XC-Potential eval.      ....       0.085 sec  (  4.4% of XC)
Diagonalization             ....       0.027 sec  (  0.2%)
Density matrix formation    ....       0.012 sec  (  0.1%)
Population analysis         ....       0.080 sec  (  0.5%)
Initial guess               ....       0.039 sec  (  0.2%)
Orbital Transformation      ....       0.000 sec  (  0.0%)
Orbital Orthonormalization  ....       0.021 sec  (  0.1%)
DIIS solution               ....       0.011 sec  (  0.1%)
SOSCF solution              ....       0.129 sec  (  0.8%)
Grid generation             ....       1.505 sec  (  8.9%)

Maximum memory used throughout the entire SCF-calculation: 67.9 MB

-------------------------   --------------------
FINAL SINGLE POINT ENERGY      -990.265181775250
-------------------------   --------------------

                                *** OPTIMIZATION RUN DONE ***

                            ***************************************
                            *     ORCA property calculations      *
                            ***************************************

                                    ---------------------
                                    Active property flags
                                    ---------------------
   (+) Dipole Moment


------------------------------------------------------------------------------
                       ORCA ELECTRIC PROPERTIES CALCULATION
------------------------------------------------------------------------------

Dipole Moment Calculation                       ... on
Quadrupole Moment Calculation                   ... off
Polarizability Calculation                      ... off
GBWName                                         ... structure_opt.gbw
Electron density                                ... structure_opt.scfp
The origin for moment calculation is the CENTER OF MASS  = (-2.959302,  1.444936  0.502332)

-------------
DIPOLE MOMENT
-------------
                                X             Y             Z
Electronic contribution:      8.90414      -8.33905      22.40977
Nuclear contribution   :     -4.59137       5.21024      -8.79677
                        -----------------------------------------
Total Dipole Moment    :      4.31277      -3.12881      13.61301
                        -----------------------------------------
Magnitude (a.u.)       :     14.61860
Magnitude (Debye)      :     37.15752



--------------------
Rotational spectrum 
--------------------
 
Rotational constants in cm-1:     0.055116     0.004965     0.004589 
Rotational constants in MHz :  1652.324407   148.837852   137.581544 

 Dipole components along the rotational axes: 
x,y,z [a.u.] :    14.598235     0.561602    -0.528661 
x,y,z [Debye]:    37.105764     1.427480    -1.343749 

 

Timings for individual modules:

Sum of individual times         ...     1215.858 sec (=  20.264 min)
GTO integral calculation        ...       72.453 sec (=   1.208 min)   6.0 %
SCF iterations                  ...      932.714 sec (=  15.545 min)  76.7 %
SCF Gradient evaluation         ...      208.489 sec (=   3.475 min)  17.1 %
Geometry relaxation             ...        2.203 sec (=   0.037 min)   0.2 %
                             ****ORCA TERMINATED NORMALLY****
TOTAL RUN TIME: 0 days 0 hours 21 minutes 45 seconds 154 msec
