
                                 *****************
                                 * O   R   C   A *
                                 *****************

                                            #,                                       
                                            ###                                      
                                            ####                                     
                                            #####                                    
                                            ######                                   
                                           ########,                                 
                                     ,,################,,,,,                         
                               ,,#################################,,                 
                          ,,##########################################,,             
                       ,#########################################, ''#####,          
                    ,#############################################,,   '####,        
                  ,##################################################,,,,####,       
                ,###########''''           ''''###############################       
              ,#####''   ,,,,##########,,,,          '''####'''          '####       
            ,##' ,,,,###########################,,,                        '##       
           ' ,,###''''                  '''############,,,                           
         ,,##''                                '''############,,,,        ,,,,,,###''
      ,#''                                            '''#######################'''  
     '                                                          ''''####''''         
             ,#######,   #######,   ,#######,      ##                                
            ,#'     '#,  ##    ##  ,#'     '#,    #''#        ######   ,####,        
            ##       ##  ##   ,#'  ##            #'  '#       #        #'  '#        
            ##       ##  #######   ##           ,######,      #####,   #    #        
            '#,     ,#'  ##    ##  '#,     ,#' ,#      #,         ##   #,  ,#        
             '#######'   ##     ##  '#######'  #'      '#     #####' # '####'        



                  #######################################################
                  #                        -***-                        #
                  #          Department of theory and spectroscopy      #
                  #    Directorship and core code : Frank Neese         #
                  #        Max Planck Institute fuer Kohlenforschung    #
                  #                Kaiser Wilhelm Platz 1               #
                  #                 D-45470 Muelheim/Ruhr               #
                  #                      Germany                        #
                  #                                                     #
                  #                  All rights reserved                #
                  #                        -***-                        #
                  #######################################################


                         Program Version 5.0.4 -  RELEASE  -


 With contributions from (in alphabetic order):
   Daniel Aravena         : Magnetic Suceptibility
   Michael Atanasov       : Ab Initio Ligand Field Theory (pilot matlab implementation)
   Alexander A. Auer      : GIAO ZORA, VPT2 properties, NMR spectrum
   Ute Becker             : Parallelization
   Giovanni Bistoni       : ED, misc. LED, open-shell LED, HFLD
   Martin Brehm           : Molecular dynamics
   Dmytro Bykov           : SCF Hessian
   Vijay G. Chilkuri      : MRCI spin determinant printing, contributions to CSF-ICE
   Dipayan Datta          : RHF DLPNO-CCSD density
   Achintya Kumar Dutta   : EOM-CC, STEOM-CC
   Dmitry Ganyushin       : Spin-Orbit,Spin-Spin,Magnetic field MRCI
   Miquel Garcia          : C-PCM and meta-GGA Hessian, CC/C-PCM, Gaussian charge scheme
   Yang Guo               : DLPNO-NEVPT2, F12-NEVPT2, CIM, IAO-localization
   Andreas Hansen         : Spin unrestricted coupled pair/coupled cluster methods
   Benjamin Helmich-Paris : MC-RPA, TRAH-SCF, COSX integrals
   Lee Huntington         : MR-EOM, pCC
   Robert Izsak           : Overlap fitted RIJCOSX, COSX-SCS-MP3, EOM
   Marcus Kettner         : VPT2
   Christian Kollmar      : KDIIS, OOCD, Brueckner-CCSD(T), CCSD density, CASPT2, CASPT2-K
   Simone Kossmann        : Meta GGA functionals, TD-DFT gradient, OOMP2, MP2 Hessian
   Martin Krupicka        : Initial AUTO-CI
   Lucas Lang             : DCDCAS
   Marvin Lechner         : AUTO-CI (C++ implementation), FIC-MRCC
   Dagmar Lenk            : GEPOL surface, SMD
   Dimitrios Liakos       : Extrapolation schemes; Compound Job, initial MDCI parallelization
   Dimitrios Manganas     : Further ROCIS development; embedding schemes
   Dimitrios Pantazis     : SARC Basis sets
   Anastasios Papadopoulos: AUTO-CI, single reference methods and gradients
   Taras Petrenko         : DFT Hessian,TD-DFT gradient, ASA, ECA, R-Raman, ABS, FL, XAS/XES, NRVS
   Peter Pinski           : DLPNO-MP2, DLPNO-MP2 Gradient
   Christoph Reimann      : Effective Core Potentials
   Marius Retegan         : Local ZFS, SOC
   Christoph Riplinger    : Optimizer, TS searches, QM/MM, DLPNO-CCSD(T), (RO)-DLPNO pert. Triples
   Tobias Risthaus        : Range-separated hybrids, TD-DFT gradient, RPA, STAB
   Michael Roemelt        : Original ROCIS implementation
   Masaaki Saitow         : Open-shell DLPNO-CCSD energy and density
   Barbara Sandhoefer     : DKH picture change effects
   Avijit Sen             : IP-ROCIS
   Kantharuban Sivalingam : CASSCF convergence, NEVPT2, FIC-MRCI
   Bernardo de Souza      : ESD, SOC TD-DFT
   Georgi Stoychev        : AutoAux, RI-MP2 NMR, DLPNO-MP2 response
   Willem Van den Heuvel  : Paramagnetic NMR
   Boris Wezisla          : Elementary symmetry handling
   Frank Wennmohs         : Technical directorship


 We gratefully acknowledge several colleagues who have allowed us to
 interface, adapt or use parts of their codes:
   Stefan Grimme, W. Hujo, H. Kruse, P. Pracht,  : VdW corrections, initial TS optimization,
                  C. Bannwarth, S. Ehlert          DFT functionals, gCP, sTDA/sTD-DF
   Ed Valeev, F. Pavosevic, A. Kumar             : LibInt (2-el integral package), F12 methods
   Garnet Chan, S. Sharma, J. Yang, R. Olivares  : DMRG
   Ulf Ekstrom                                   : XCFun DFT Library
   Mihaly Kallay                                 : mrcc  (arbitrary order and MRCC methods)
   Jiri Pittner, Ondrej Demel                    : Mk-CCSD
   Frank Weinhold                                : gennbo (NPA and NBO analysis)
   Christopher J. Cramer and Donald G. Truhlar   : smd solvation model
   Lars Goerigk                                  : TD-DFT with DH, B97 family of functionals
   V. Asgeirsson, H. Jonsson                     : NEB implementation
   FAccTs GmbH                                   : IRC, NEB, NEB-TS, DLPNO-Multilevel, CI-OPT
                                                   MM, QMMM, 2- and 3-layer-ONIOM, Crystal-QMMM,
                                                   LR-CPCM, SF, NACMEs, symmetry and pop. for TD-DFT,
                                                   nearIR, NL-DFT gradient (VV10), updates on ESD,
                                                   ML-optimized integration grids
   S Lehtola, MJT Oliveira, MAL Marques          : LibXC Library
   Liviu Ungur et al                             : ANISO software


 Your calculation uses the libint2 library for the computation of 2-el integrals
 For citations please refer to: http://libint.valeyev.net

 Your ORCA version has been built with support for libXC version: 5.1.0
 For citations please refer to: https://tddft.org/programs/libxc/

 This ORCA versions uses:
   CBLAS   interface :  Fast vector & matrix operations
   LAPACKE interface :  Fast linear algebra routines
   SCALAPACK package :  Parallel linear algebra routines
   Shared memory     :  Shared parallel matrices
   BLAS/LAPACK       :  OpenBLAS 0.3.15  USE64BITINT DYNAMIC_ARCH NO_AFFINITY SkylakeX SINGLE_THREADED
        Core in use  :  SkylakeX
   Copyright (c) 2011-2014, The OpenBLAS Project




***************************************
The coordinates will be read from file: reactants.xyz
***************************************


Your calculation utilizes the SMD solvation module
Please cite in your paper:
A.V. Marenich, C.J. Cramer, D.G. Truhlar J. Phys. Chem. B, 113, (2009), 6378 

XCFun DFT library Copyright 2009-2010 Ulf Ekstrom and contributors.
See http://admol.org/xcfun for more information.
This is free software; see the source code for copying conditions.
There is ABSOLUTELY NO WARRANTY; not even for MERCHANTABILITY or FITNESS FOR A PARTICULAR PURPOSE.
For details see the documentation.
Scientific users of this library should cite U. Ekstrom, L. Visscher, R. Bast, A. J. Thorvaldsen and K. Ruud;
J.Chem.Theor.Comp. 2010, DOI: 10.1021/ct100117s
XCFun Version 0.99 

================================================================================

----- Orbital basis set information -----
Your calculation utilizes the basis: 6-311++G**
   H, Li - Ne  : R. Krishnan, J. S. Binkley, R. Seeger and J. A. Pople, J. Chem. Phys. 72, 650 (1980).
   Na - Ar     : A. D. McLean and G. S. Chandler J. Chem. Phys. 72, 5639, (1980).
   K  - Ca     : J.-P. Blaudeau, M. P. McGrath, L. A. Curtiss and L. Radom, J. Chem. Phys. 107, 5016 (1997).
   Ga - Kr     : L. A. Curtiss, M. P. McGrath, J.-P. Blandeau, N. E. Davis, R. C. Binning and L. Radom, J. Chem. Phys. 103, 6104 (1995).
   Pol./Diff.
   H, Li - Cl  : T. Clark, J. Chandrasekhar and P. v. R. Schleyer, J. Comp. Chem. 4, 294 (1983).
   H - Ne      : M. J. Frisch, J. A. Pople and J. S. Binkley, J. Chem. Phys. 80, 3265 (1984).

----- AuxJ basis set information -----
Your calculation utilizes the auxiliary basis: def2/J
   F. Weigend, Phys. Chem. Chem. Phys. 8, 1057 (2006).

================================================================================
                                        WARNINGS
                       Please study these warnings very carefully!
================================================================================


WARNING: Geometry Optimization
  ===> : Switching off AutoStart
         For restart on a previous wavefunction, please use MOREAD

INFO   : the flag for use of the SHARK integral package has been found!

================================================================================
                                       INPUT FILE
================================================================================
NAME = structure_opt.inp
|  1> !wb97x 6-311++G** OPT CPCM(WATER)
|  2> %maxcore  3500
|  3> %pal
|  4> nprocs 24
|  5> end
|  6> %cpcm
|  7> smd true
|  8> SMDsolvent "water"
|  9> end
| 10> %geom
| 11> ConstrainFragments {1} end
| 12> ConstrainFragments {4} end
| 13> ConnectFragments
| 14> { 1 2 C 5 7 }
| 15> { 1 2 C 0 9 }
| 16> { 2 3 C 13 5 }
| 17> { 3 4 C 13 17 }
| 18> end
| 19> end
| 20> * XYZfile -1 1 reactants.xyz
| 21> %geom
| 22> Fragments
| 23> 1 {0:5} end
| 24> 2 {6:12} end
| 25> 3 {13:16} end
| 26> 4 {17} end
| 27> end
| 28> end
| 29> 
| 30>                          ****END OF INPUT****
================================================================================

                       *****************************
                       * Geometry Optimization Run *
                       *****************************

Geometry optimization settings:
Update method            Update   .... BFGS
Choice of coordinates    CoordSys .... Z-matrix Internals
Initial Hessian          InHess   .... Almoef's Model

Convergence Tolerances:
Energy Change            TolE     ....  5.0000e-06 Eh
Max. Gradient            TolMAXG  ....  3.0000e-04 Eh/bohr
RMS Gradient             TolRMSG  ....  1.0000e-04 Eh/bohr
Max. Displacement        TolMAXD  ....  4.0000e-03 bohr
RMS Displacement         TolRMSD  ....  2.0000e-03 bohr
Strict Convergence                ....  False
------------------------------------------------------------------------------
                        ORCA OPTIMIZATION COORDINATE SETUP
------------------------------------------------------------------------------

The optimization will be done in new redundant internal coordinates
Making redundant internal coordinates   ...  (new redundants) done
Evaluating the initial hessian          ...  (Almloef) done
Evaluating the coordinates              ...  done
Calculating the B-matrix                .... done
Calculating the G-matrix                .... done
Diagonalizing the G-matrix              .... done
Imposing constraints:
 Iter   0:  RMS(Cart)=    0.0000000000 RMS(Int)=    0.0000000000
CONVERGED
Small eigenvalue found = 3.783e-03
Small eigenvalue found = 1.194e-02
Small eigenvalue found = 2.115e-02
Small eigenvalue found = 2.529e-02
The first mode is                       ....   56
The number of degrees of freedom        ....   48
Storing new coordinates                 .... done

    -----------------------------------------------------------------
                    Redundant Internal Coordinates


    -----------------------------------------------------------------
         Definition                    Initial Value    Approx d2E/dq
    -----------------------------------------------------------------
      1. B(N   1,C   0)                  1.3611         0.622347   
      2. B(C   2,N   1)                  1.3582         0.628875   
      3. B(C   3,C   2)                  1.3949         0.613658   
      4. B(C   4,C   3)                  1.3934         0.616971   
      5. B(C   5,C   0)                  1.4122         0.575774   
      6. B(C   5,C   4)                  1.4061         0.588917   
      7. B(O   7,C   5)                  2.3435         0.016853 C 
      8. B(O   7,N   6)                  1.2480         0.844503   
      9. B(O   8,N   6)                  1.3769         0.525866   
     10. B(F   9,C   0)                  1.3500         0.602260 C 
     11. B(F   9,N   6)                  2.8678         0.002044   
     12. B(F   9,O   7)                  2.5821         0.005837   
     13. B(H  11,H  10)                  2.4818         0.000415   
     14. B(H  12,O   8)                  2.5152         0.001717   
     15. B(H  12,H  11)                  2.4663         0.000439   
     16. B(H  12,N   6)                  2.7029         0.000861   
     17. B(C  13,H  10)                  4.3537         0.000002 C 
     18. B(H  14,C  13)                  1.0941         0.354663   
     19. B(H  15,C  13)                  1.0929         0.356339   
     20. B(H  16,C  13)                  1.0931         0.356052   
     21. B(S  17,C  13)                  1.8031         0.369311 C 
     22. A(C   5,C   0,F   9)          121.1725         0.421471 C 
     23. A(N   1,C   0,C   5)          120.1571         0.425830   
     24. A(N   1,C   0,F   9)          118.6704         0.424592 C 
     25. A(C   0,N   1,C   2)          121.9524         0.429796   
     26. A(N   1,C   2,C   3)          120.0262         0.431531   
     27. A(C   2,C   3,C   4)          119.3498         0.432882   
     28. A(C   3,C   4,C   5)          120.4718         0.429694   
     29. A(C   4,C   5,O   7)          147.4261         0.238582 C 
     30. A(C   0,C   5,O   7)           94.5313         0.237820 C 
     31. A(C   0,C   5,C   4)          118.0425         0.424407   
     32. A(O   8,N   6,H  12)           67.2752         0.152046   
     33. A(O   7,N   6,H  12)          174.2234         0.159181   
     34. A(O   7,N   6,O   8)          118.5014         0.433822   
     35. A(F   9,N   6,H  12)          110.0144         0.106848   
     36. A(O   7,N   6,F   9)           64.2090         0.186619   
     37. A(N   6,O   7,F   9)           89.9947         0.212791   
     38. A(C   5,O   7,N   6)           31.7456         0.248611 C 
     39. A(C   5,O   7,F   9)           58.2491         0.140475 C 
     40. A(N   6,O   8,H  12)           82.3972         0.162696   
     41. A(N   6,F   9,O   7)           25.7962         0.120482   
     42. A(C   0,F   9,O   7)           86.0471         0.203997 C 
     43. A(C   0,F   9,N   6)           60.2509         0.179684 C 
     44. A(H  11,H  10,C  13)           95.9804         0.091313 C 
     45. A(H  10,H  11,H  12)          119.7063         0.095112   
     46. A(N   6,H  12,O   8)           30.3275         0.103999   
     47. A(N   6,H  12,H  11)          126.7169         0.097913   
     48. A(O   8,H  12,H  11)          157.0445         0.099419   
     49. A(H  14,C  13,H  15)          109.0156         0.289668   
     50. A(H  14,C  13,H  16)          108.8967         0.289632   
     51. A(H  15,C  13,H  16)          109.0686         0.289846   
     52. A(H  10,C  13,H  14)          127.3139         0.102334 C 
     53. A(H  10,C  13,H  15)           96.6047         0.102348 C 
     54. A(H  10,C  13,H  16)          104.5801         0.102346 C 
     55. A(H  14,C  13,S  17)          109.9538         0.339322 C 
     56. A(H  15,C  13,S  17)          110.0183         0.339589 C 
     57. A(H  16,C  13,S  17)          109.8616         0.339544 C 
     58. A(H  10,C  13,S  17)           18.1619         0.105651   
     59. D(C   2,N   1,C   0,C   5)     -0.1041         0.028432   
     60. D(C   2,N   1,C   0,F   9)    179.9112         0.028432 C 
     61. D(C   3,C   2,N   1,C   0)      0.1066         0.025783   
     62. D(C   4,C   3,C   2,N   1)     -0.0956         0.020965   
     63. D(C   5,C   4,C   3,C   2)      0.0854         0.021202   
     64. D(C   4,C   5,C   0,N   1)      0.0896         0.022761   
     65. D(O   7,C   5,C   0,N   1)    179.9933         0.022761 C 
     66. D(O   7,C   5,C   4,C   3)   -179.9036         0.021656 C 
     67. D(C   0,C   5,C   4,C   3)     -0.0818         0.021656   
     68. D(C   4,C   5,C   0,F   9)   -179.9260         0.022761 C 
     69. D(O   7,C   5,C   0,F   9)     -0.0223         0.022761 C 
     70. D(F   9,O   7,C   5,C   0)      0.0117         0.001517 C 
     71. D(N   6,O   7,C   5,C   0)   -179.9521         0.001517 C 
     72. D(N   6,O   7,C   5,C   4)     -0.1099         0.001517 C 
     73. D(F   9,O   7,C   5,C   4)    179.8539         0.001517 C 
     74. D(F   9,O   7,N   6,O   8)    179.9932         0.079747   
     75. D(F   9,O   7,N   6,H  12)      0.1568         0.079747   
     76. D(C   5,O   7,N   6,O   8)   -179.9761         0.079747 C 
     77. D(C   5,O   7,N   6,H  12)      0.1876         0.079747 C 
     78. D(C   5,O   7,N   6,F   9)      0.0308         0.079747 C 
     79. D(H  12,O   8,N   6,O   7)   -179.9821         0.025649   
     80. D(C   0,F   9,O   7,C   5)     -0.0123         0.001503 C 
     81. D(N   6,F   9,C   0,C   5)      0.0236         0.032536 C 
     82. D(O   7,F   9,C   0,N   1)   -179.9952         0.032536 C 
     83. D(O   7,F   9,C   0,C   5)      0.0202         0.032536 C 
     84. D(O   7,F   9,N   6,H  12)   -179.9832         0.001500   
     85. D(C   0,F   9,N   6,O   7)   -179.9922         0.001500 C 
     86. D(C   0,F   9,N   6,H  12)      0.0246         0.001500 C 
     87. D(N   6,F   9,O   7,C   5)     -0.0190         0.001503 C 
     88. D(N   6,F   9,C   0,N   1)   -179.9918         0.032536 C 
     89. D(C   0,F   9,O   7,N   6)      0.0068         0.001503 C 
     90. D(O   7,F   9,O   8,H  12)   -179.9897         0.001500   
     91. D(C   0,F   9,O   8,H  12)      0.0232         0.001500 C 
     92. D(H  12,H  11,H  10,C  13)   -147.7038         0.001501 C 
     93. D(O   8,H  12,N   6,O   7)    179.8441         0.001501   
     94. D(O   8,H  12,N   6,F   9)    179.9943         0.001501   
     95. D(H  11,H  12,N   6,O   7)     -0.1748         0.001501   
     96. D(H  11,H  12,N   6,O   8)    179.9811         0.001501   
     97. D(H  11,H  12,N   6,F   9)     -0.0245         0.001501   
     98. D(H  11,H  12,O   8,N   6)     -0.0388         0.001502   
     99. D(N   6,H  12,H  11,H  10)      0.0466         0.001502   
    100. D(O   8,H  12,H  11,H  10)      0.0710         0.001502   
    101. D(H  14,C  13,H  10,H  11)     90.8728         0.001500 C 
    102. D(H  15,C  13,H  10,H  11)    -29.1712         0.001500 C 
    103. D(H  16,C  13,H  10,H  11)   -140.8833         0.001500 C 
    104. D(S  17,C  13,H  10,H  11)    109.6450         0.001500   
    -----------------------------------------------------------------

Number of atoms                         .... 18
Number of degrees of freedom            .... 104

         *************************************************************
         *                GEOMETRY OPTIMIZATION CYCLE   1            *
         *************************************************************
---------------------------------
CARTESIAN COORDINATES (ANGSTROEM)
---------------------------------
  C      0.000000    0.000000    1.820000
  N      1.178000   -0.196000    2.473000
  C      1.255000   -0.207000    3.829000
  C      0.105000   -0.016000    4.595000
  C     -1.116000    0.187000    3.955000
  C     -1.192000    0.198000    2.551000
  N     -2.456000    0.409000    1.893000
  O     -2.541000    0.423000    0.648000
  O     -3.602000    0.600000    2.632000
  F      0.000000    0.000000    0.470000
  H      2.209000   -0.366000    4.313000
  H      0.163000   -0.026000    5.676000
  H     -2.005000    0.335000    4.557000
  C      4.186000   -3.041000    7.122000
  H      4.125000   -4.133000    7.153000
  H      3.729000   -2.633000    8.027000
  H      5.238000   -2.746000    7.089000
  S      3.329000   -2.418000    5.663000

----------------------------
CARTESIAN COORDINATES (A.U.)
----------------------------
  NO LB      ZA    FRAG     MASS         X           Y           Z
   0 C     6.0000    1    12.011    0.000000    0.000000    3.439302
   1 N     7.0000    1    14.007    2.226097   -0.370386    4.673293
   2 C     6.0000    1    12.011    2.371606   -0.391173    7.235761
   3 C     6.0000    1    12.011    0.198421   -0.030236    8.683292
   4 C     6.0000    1    12.011   -2.108934    0.353379    7.473867
   5 C     6.0000    1    12.011   -2.252554    0.374166    4.820691
   6 N     7.0000    2    14.007   -4.641167    0.772898    3.577252
   7 O     8.0000    2    15.999   -4.801794    0.799354    1.224543
   8 O     8.0000    2    15.999   -6.806794    1.133836    4.973759
   9 F     9.0000    2    18.998    0.000000    0.000000    0.888171
  10 H     1.0000    2     1.008    4.174405   -0.691640    8.150389
  11 H     1.0000    2     1.008    0.308025   -0.049133   10.726086
  12 H     1.0000    2     1.008   -3.788901    0.633058    8.611482
  13 C     6.0000    3    12.011    7.910394   -5.746657   13.458630
  14 H     1.0000    3     1.008    7.795120   -7.810238   13.517211
  15 H     1.0000    3     1.008    7.046789   -4.975649   15.168832
  16 H     1.0000    3     1.008    9.898385   -5.189188   13.396269
  17 S    16.0000    4    32.060    6.290898   -4.569358   10.701519

----------------------------------------------
CARTESIAN COORDINATES OF FRAGMENTS (ANGSTROEM)
----------------------------------------------

 FRAGMENT 1 
  C     0.000000    0.000000    1.820000
  N     1.178000   -0.196000    2.473000
  C     1.255000   -0.207000    3.829000
  C     0.105000   -0.016000    4.595000
  C    -1.116000    0.187000    3.955000
  C    -1.192000    0.198000    2.551000

 FRAGMENT 2 
  N    -2.456000    0.409000    1.893000
  O    -2.541000    0.423000    0.648000
  O    -3.602000    0.600000    2.632000
  F     0.000000    0.000000    0.470000
  H     2.209000   -0.366000    4.313000
  H     0.163000   -0.026000    5.676000
  H    -2.005000    0.335000    4.557000

 FRAGMENT 3 
  C     4.186000   -3.041000    7.122000
  H     4.125000   -4.133000    7.153000
  H     3.729000   -2.633000    8.027000
  H     5.238000   -2.746000    7.089000

 FRAGMENT 4 
  S     3.329000   -2.418000    5.663000

--------------------------------
INTERNAL COORDINATES (ANGSTROEM)
--------------------------------
 C      0   0   0     0.000000000000     0.00000000     0.00000000
 N      1   0   0     1.361069065110     0.00000000     0.00000000
 C      2   1   0     1.358228993948   121.95243626     0.00000000
 C      3   2   1     1.394896770374   120.02620694     0.10655554
 C      4   3   2     1.393431017309   119.34983770   359.90435571
 C      5   4   3     1.406098502951   120.47178172     0.08537773
 N      6   5   4     1.440548853736   120.30882193   180.03842131
 O      7   6   5     1.247976762604   121.13704526   179.93147861
 O      7   6   5     1.376923382037   120.36156660   359.90709941
 F      1   2   3     1.350000000000   118.67037638   179.91115691
 H      3   2   1     1.081504969938   119.86701156   179.98746005
 H      4   3   2     1.082601034546   120.19197482   179.89186186
 H      5   4   3     1.083803026384   118.91636700   180.02085854
 C     11   3   2     4.353692111300   141.22710408   238.14508887
 H     14  11   3     1.094141672728   127.31394750    43.31769341
 H     14  11   3     1.092857721755    96.60471493   283.27372387
 H     14  11   3     1.093077307422   104.58013911   171.56155351
 S     14  11   3     1.803124787695    18.16194800    62.08985011

---------------------------
INTERNAL COORDINATES (A.U.)
---------------------------
 C      0   0   0     0.000000000000     0.00000000     0.00000000
 N      1   0   0     2.572047782411     0.00000000     0.00000000
 C      2   1   0     2.566680825712   121.95243626     0.00000000
 C      3   2   1     2.635972881098   120.02620694     0.10655554
 C      4   3   2     2.633203009226   119.34983770   359.90435571
 C      5   4   3     2.657141087893   120.47178172     0.08537773
 N      6   5   4     2.722242816095   120.30882193   180.03842131
 O      7   6   5     2.358334302820   121.13704526   179.93147861
 O      7   6   5     2.602008099442   120.36156660   359.90709941
 F      1   2   3     2.551130280794   118.67037638   179.91115691
 H      3   2   1     2.043748205657   119.86701156   179.98746005
 H      4   3   2     2.045819467592   120.19197482   179.89186186
 H      5   4   3     2.048090902982   118.91636700   180.02085854
 C     11   3   2     8.227285761771   141.22710408   238.14508887
 H     14  11   3     2.067628113166   127.31394750    43.31769341
 H     14  11   3     2.065201797458    96.60471493   283.27372387
 H     14  11   3     2.065616754231   104.58013911   171.56155351
 S     14  11   3     3.407412034028    18.16194800    62.08985011

---------------------
BASIS SET INFORMATION
---------------------
There are 6 groups of distinct atoms

 Group   1 Type C   : 12s6p1d contracted to 5s4p1d pattern {63111/3111/1}
 Group   2 Type N   : 12s6p1d contracted to 5s4p1d pattern {63111/3111/1}
 Group   3 Type O   : 12s6p1d contracted to 5s4p1d pattern {63111/3111/1}
 Group   4 Type F   : 12s6p1d contracted to 5s4p1d pattern {63111/3111/1}
 Group   5 Type H   : 6s1p contracted to 4s1p pattern {3111/1}
 Group   6 Type S   : 14s10p1d contracted to 7s6p1d pattern {6311111/421111/1}

Atom   0C    basis set group =>   1
Atom   1N    basis set group =>   2
Atom   2C    basis set group =>   1
Atom   3C    basis set group =>   1
Atom   4C    basis set group =>   1
Atom   5C    basis set group =>   1
Atom   6N    basis set group =>   2
Atom   7O    basis set group =>   3
Atom   8O    basis set group =>   3
Atom   9F    basis set group =>   4
Atom  10H    basis set group =>   5
Atom  11H    basis set group =>   5
Atom  12H    basis set group =>   5
Atom  13C    basis set group =>   1
Atom  14H    basis set group =>   5
Atom  15H    basis set group =>   5
Atom  16H    basis set group =>   5
Atom  17S    basis set group =>   6
---------------------------------
AUXILIARY/J BASIS SET INFORMATION
---------------------------------
There are 6 groups of distinct atoms

 Group   1 Type C   : 12s5p4d2f1g contracted to 6s4p3d1f1g pattern {711111/2111/211/2/1}
 Group   2 Type N   : 12s5p4d2f1g contracted to 6s4p3d1f1g pattern {711111/2111/211/2/1}
 Group   3 Type O   : 12s5p4d2f1g contracted to 6s4p3d1f1g pattern {711111/2111/211/2/1}
 Group   4 Type F   : 12s5p4d2f1g contracted to 6s4p3d1f1g pattern {711111/2111/211/2/1}
 Group   5 Type H   : 5s2p1d contracted to 3s1p1d pattern {311/2/1}
 Group   6 Type S   : 14s5p5d2f1g contracted to 8s4p3d1f1g pattern {71111111/2111/311/2/1}

Atom   0C    basis set group =>   1
Atom   1N    basis set group =>   2
Atom   2C    basis set group =>   1
Atom   3C    basis set group =>   1
Atom   4C    basis set group =>   1
Atom   5C    basis set group =>   1
Atom   6N    basis set group =>   2
Atom   7O    basis set group =>   3
Atom   8O    basis set group =>   3
Atom   9F    basis set group =>   4
Atom  10H    basis set group =>   5
Atom  11H    basis set group =>   5
Atom  12H    basis set group =>   5
Atom  13C    basis set group =>   1
Atom  14H    basis set group =>   5
Atom  15H    basis set group =>   5
Atom  16H    basis set group =>   5
Atom  17S    basis set group =>   6


           ************************************************************
           *        Program running with 24 parallel MPI-processes    *
           *              working on a common directory               *
           ************************************************************
------------------------------------------------------------------------------
                           ORCA GTO INTEGRAL CALCULATION
                           -- RI-GTO INTEGRALS CHOSEN --
------------------------------------------------------------------------------
------------------------------------------------------------------------------
                   ___                                                        
                  /   \      - P O W E R E D   B Y -                         
                 /     \                                                     
                 |  |  |   _    _      __       _____    __    __             
                 |  |  |  | |  | |    /  \     |  _  \  |  |  /  |          
                  \  \/   | |  | |   /    \    | | | |  |  | /  /          
                 / \  \   | |__| |  /  /\  \   | |_| |  |  |/  /          
                |  |  |   |  __  | /  /__\  \  |    /   |      \           
                |  |  |   | |  | | |   __   |  |    \   |  |\   \          
                \     /   | |  | | |  |  |  |  | |\  \  |  | \   \       
                 \___/    |_|  |_| |__|  |__|  |_| \__\ |__|  \__/        
                                                                              
                      - O R C A' S   B I G   F R I E N D -                    
                                      &                                       
                       - I N T E G R A L  F E E D E R -                       
                                                                              
 v1 FN, 2020, v2 2021                                                         
------------------------------------------------------------------------------


Reading SHARK input file structure_opt.SHARKINP.tmp ... ok
----------------------
SHARK INTEGRAL PACKAGE
----------------------

Number of atoms                             ...     18
Number of basis functions                   ...    314
Number of shells                            ...    154
Maximum angular momentum                    ...      2
Integral batch strategy                     ... SHARK/LIBINT Hybrid
RI-J (if used) integral strategy            ... SPLIT-RIJ (Revised 2003 algorithm where possible)
Printlevel                                  ...      1
Contraction scheme used                     ... SEGMENTED contraction
Coulomb Range Separation                    ... NOT USED
Exchange Range Separation                   ... Long Range
   Mu parameter                             ...  0.300000
   Scaling (regular/separated)              ...  0.157706  0.842294
Finite Nucleus Model                        ... NOT USED
Auxiliary Coulomb fitting basis             ... AVAILABLE
   # of basis functions in Aux-J            ...    656
   # of shells in Aux-J                     ...    212
   Maximum angular momentum in Aux-J        ...      4
Auxiliary J/K fitting basis                 ... NOT available
Auxiliary Correlation fitting basis         ... NOT available
Auxiliary 'external' fitting basis          ... NOT available
Integral threshold                          ...     2.500000e-11
Primitive cut-off                           ...     2.500000e-12
Primitive pair pre-selection threshold      ...     2.500000e-12

Calculating pre-screening integrals         ... done (  0.0 sec) Dimension = 154
Organizing shell pair data                  ... done (  0.1 sec)
Shell pair information
Total number of shell pairs                 ...     11935
Shell pairs after pre-screening             ...      9376
Total number of primitive shell pairs       ...     38500
Primitive shell pairs kept                  ...     21354
          la=0 lb=0:   2890 shell pairs
          la=1 lb=0:   3849 shell pairs
          la=1 lb=1:   1315 shell pairs
          la=2 lb=0:    750 shell pairs
          la=2 lb=1:    516 shell pairs
          la=2 lb=2:     56 shell pairs

Calculating one electron integrals          ... done (  0.0 sec)
Calculating RI/J V-Matrix + Cholesky decomp.... done (  0.4 sec)
Calculating Nuclear repulsion               ... done (  0.0 sec) ENN=    705.591547785273 Eh

SHARK setup successfully completed in   1.0 seconds

Maximum memory used throughout the entire GTOINT-calculation: 18.0 MB


           ************************************************************
           *        Program running with 24 parallel MPI-processes    *
           *              working on a common directory               *
           ************************************************************
-------------------------------------------------------------------------------
                                 ORCA SCF
-------------------------------------------------------------------------------

------------
SCF SETTINGS
------------
Hamiltonian:
 Density Functional     Method          .... DFT(GTOs)
 Exchange Functional    Exchange        .... WB97X
 Correlation Functional Correlation     .... WB97X
 Gradients option       PostSCFGGA      .... off
 Hybrid DFT is turned on
   Fraction HF Exchange ScalHFX         ....  0.157706
   Scaling of DF-GGA-X  ScalDFX         ....  0.000000
   Scaling of DF-GGA-C  ScalDFC         ....  1.000000
   Scaling of DF-LDA-C  ScalLDAC        ....  1.000000
   Perturbative correction              ....  0.000000
   Density functional embedding theory  .... OFF
 Long-range corrected/Screened/Range-Separated Hybrid DFT is turned on
   Amount of maximum screened exact exchange              ....  0.842294
   Range separation parameter mu (erf(mu*r12)/r12)        ....  0.300000
 RI-approximation to the Coulomb term is turned on
   Number of AuxJ basis functions       .... 656
   RIJ-COSX (HFX calculated with COS-X)).... on


General Settings:
 Integral files         IntName         .... structure_opt
 Hartree-Fock type      HFTyp           .... RHF
 Total Charge           Charge          ....   -1
 Multiplicity           Mult            ....    1
 Number of Electrons    NEL             ....   98
 Basis Dimension        Dim             ....  314
 Nuclear Repulsion      ENuc            ....    705.5915477853 Eh

Convergence Acceleration:
 DIIS                   CNVDIIS         .... on
   Start iteration      DIISMaxIt       ....    12
   Startup error        DIISStart       ....  0.200000
   # of expansion vecs  DIISMaxEq       ....     5
   Bias factor          DIISBfac        ....   1.050
   Max. coefficient     DIISMaxC        ....  10.000
 Trust-Rad. Augm. Hess. CNVTRAH         .... auto
   Auto Start mean grad. ratio tolernc. ....  1.125000
   Auto Start start iteration           ....    20
   Auto Start num. interpolation iter.  ....    10
   Max. Number of Micro iterations      ....    16
   Max. Number of Macro iterations      .... Maxiter - #DIIS iter
   Number of Davidson start vectors     ....     2
   Converg. threshold I  (grad. norm)   ....   1.000e-05
   Converg. threshold II (energy diff.) ....   1.000e-08
   Grad. Scal. Fac. for Micro threshold ....   0.100
   Minimum threshold for Micro iter.    ....   0.010
   NR start threshold (gradient norm)   ....   0.001
   Initial trust radius                 ....   0.400
   Minimum AH scaling param. (alpha)    ....   1.000
   Maximum AH scaling param. (alpha)    .... 1000.000
   Orbital update algorithm             .... Taylor
   White noise on init. David. guess    .... on
   Maximum white noise                  ....   0.010
   Quad. conv. algorithm                .... NR
 SOSCF                  CNVSOSCF        .... on
   Start iteration      SOSCFMaxIt      ....   150
   Startup grad/error   SOSCFStart      ....  0.003300
 Level Shifting         CNVShift        .... on
   Level shift para.    LevelShift      ....    0.2500
   Turn off err/grad.   ShiftErr        ....    0.0010
 Zerner damping         CNVZerner       .... off
 Static damping         CNVDamp         .... on
   Fraction old density DampFac         ....    0.7000
   Max. Damping (<1)    DampMax         ....    0.9800
   Min. Damping (>=0)   DampMin         ....    0.0000
   Turn off err/grad.   DampErr         ....    0.1000
 Fernandez-Rico         CNVRico         .... off

SCF Procedure:
 Maximum # iterations   MaxIter         ....   125
 SCF integral mode      SCFMode         .... Direct
   Integral package                     .... SHARK and LIBINT hybrid scheme
 Reset frequency        DirectResetFreq ....    20
 Integral Threshold     Thresh          ....  2.500e-11 Eh
 Primitive CutOff       TCut            ....  2.500e-12 Eh

Convergence Tolerance:
 Convergence Check Mode ConvCheckMode   .... Total+1el-Energy
 Convergence forced     ConvForced      .... 0
 Energy Change          TolE            ....  1.000e-08 Eh
 1-El. energy change                    ....  1.000e-05 Eh
 Orbital Gradient       TolG            ....  1.000e-05
 Orbital Rotation angle TolX            ....  1.000e-05
 DIIS Error             TolErr          ....  5.000e-07


Diagonalization of the overlap matrix:
Smallest eigenvalue                        ... 4.393e-06
Time for diagonalization                   ...    0.015 sec
Threshold for overlap eigenvalues          ... 1.000e-08
Number of eigenvalues below threshold      ... 0
Time for construction of square roots      ...    0.034 sec
Total time needed                          ...    0.050 sec

Time for model grid setup =    0.485 sec

------------------------------
INITIAL GUESS: MODEL POTENTIAL
------------------------------
Loading Hartree-Fock densities                     ... done
Calculating cut-offs                               ... done
Initializing the effective Hamiltonian             ... done
Setting up the integral package (SHARK)            ... done
Starting the Coulomb interaction                   ... done (   0.1 sec)
Reading the grid                                   ... done
Mapping shells                                     ... done
Starting the XC term evaluation                    ... done (   0.1 sec)
  promolecular density results
     # of electrons  =     96.996084077
     EX              =    -96.556334501
     EC              =     -3.330545275
     EX+EC           =    -99.886879776
Transforming the Hamiltonian                       ... done (   0.0 sec)
Diagonalizing the Hamiltonian                      ... done (   0.0 sec)
Back transforming the eigenvectors                 ... done (   0.0 sec)
Now organizing SCF variables                       ... done
                      ------------------
                      INITIAL GUESS DONE (   0.7 sec)
                      ------------------
-------------------
DFT GRID GENERATION
-------------------

General Integration Accuracy     IntAcc      ... 4.388
Radial Grid Type                 RadialGrid  ... OptM3 with GC (2021)
Angular Grid (max. ang.)         AngularGrid ... 4 (Lebedev-302)
Angular grid pruning method      GridPruning ... 4 (adaptive)
Weight generation scheme         WeightScheme... Becke
Basis function cutoff            BFCut       ... 1.0000e-11
Integration weight cutoff        WCut        ... 1.0000e-14
Angular grids for H and He will be reduced by one unit
Partially contracted basis set               ... off
Rotationally invariant grid construction     ... off

Total number of grid points                  ...    97960
Total number of batches                      ...     1540
Average number of points per batch           ...       63
Average number of grid points per atom       ...     5442
Time for grid setup =    0.700 sec

--------------------
COSX GRID GENERATION
--------------------

GRIDX 1
-------
General Integration Accuracy     IntAcc      ... 3.816
Radial Grid Type                 RadialGrid  ... OptM3 with GC (2021)
Angular Grid (max. ang.)         AngularGrid ... 1 (Lebedev-50)
Angular grid pruning method      GridPruning ... 4 (adaptive)
Weight generation scheme         WeightScheme... Becke
Basis function cutoff            BFCut       ... 1.0000e-11
Integration weight cutoff        WCut        ... 1.0000e-14
Angular grids for H and He will be reduced by one unit
Partially contracted basis set               ... on
Rotationally invariant grid construction     ... off

Total number of grid points                  ...    12232
Total number of batches                      ...      202
Average number of points per batch           ...       60
Average number of grid points per atom       ...      680
UseSFitting                                  ... on

GRIDX 2
-------
General Integration Accuracy     IntAcc      ... 4.020
Radial Grid Type                 RadialGrid  ... OptM3 with GC (2021)
Angular Grid (max. ang.)         AngularGrid ... 2 (Lebedev-110)
Angular grid pruning method      GridPruning ... 4 (adaptive)
Weight generation scheme         WeightScheme... Becke
Basis function cutoff            BFCut       ... 1.0000e-11
Integration weight cutoff        WCut        ... 1.0000e-14
Angular grids for H and He will be reduced by one unit
Partially contracted basis set               ... on
Rotationally invariant grid construction     ... off

Total number of grid points                  ...    30949
Total number of batches                      ...      492
Average number of points per batch           ...       62
Average number of grid points per atom       ...     1719
UseSFitting                                  ... on

GRIDX 3
-------
General Integration Accuracy     IntAcc      ... 4.338
Radial Grid Type                 RadialGrid  ... OptM3 with GC (2021)
Angular Grid (max. ang.)         AngularGrid ... 3 (Lebedev-194)
Angular grid pruning method      GridPruning ... 4 (adaptive)
Weight generation scheme         WeightScheme... Becke
Basis function cutoff            BFCut       ... 1.0000e-11
Integration weight cutoff        WCut        ... 1.0000e-14
Angular grids for H and He will be reduced by one unit
Partially contracted basis set               ... on
Rotationally invariant grid construction     ... off

Total number of grid points                  ...    68712
Total number of batches                      ...     1083
Average number of points per batch           ...       63
Average number of grid points per atom       ...     3817
UseSFitting                                  ... on

Time for X-Grid setup             =    1.212 sec


--------------------
CPCM SOLVATION MODEL
--------------------
CPCM parameters:
  Epsilon                                         ...      78.3550
  Refrac                                          ...       1.3328
  Rsolv                                           ...       1.3000
  Surface type                                    ... GAUSSIAN VDW
  Epsilon function type                           ...         CPCM
Solvent:                                     ... WATER
SMD-CDS solvent descriptors:
  Soln                                       ...    1.3328
  Soln25                                     ...    1.3323
  Sola                                       ...    0.0000
  Solb                                       ...    0.0000
  Solg                                       ...    0.0000
  Solc                                       ...    0.0000
  Solh                                       ...    0.0000
Radii:
 Radius for C  used is    3.4960 Bohr (=   1.8500 Ang.)
 Radius for N  used is    3.5716 Bohr (=   1.8900 Ang.)
 Radius for O  used is    2.8724 Bohr (=   1.5200 Ang.)
 Radius for F  used is    3.2692 Bohr (=   1.7300 Ang.)
 Radius for H  used is    2.2677 Bohr (=   1.2000 Ang.)
 Radius for S  used is    4.7054 Bohr (=   2.4900 Ang.)
Calculating surface                               ...        done! (  0.0s)
GEPOL surface points                              ...         1116
GEPOL Volume                                      ...    1358.6259
GEPOL Surface-area                                ...     803.5820
Calculating surface distance matrix               ...        done! (  0.0s)
Performing Cholesky decomposition & store         ...        done! (  0.1s)
Overall time for CPCM initialization              ...                 0.1s
--------------
SCF ITERATIONS
--------------
ITER       Energy         Delta-E        Max-DP      RMS-DP      [F,P]     Damp
               ***  Starting incremental Fock matrix formation  ***
  0   -989.8719821929   0.000000000000 0.37706833  0.00331039  0.2373508 0.7000
  1   -990.0331779206  -0.161195727669 0.23752752  0.00258074  0.1137484 0.7000
                               ***Turning on DIIS***
  2   -990.1049856036  -0.071807683033 1.41266991  0.00899586  0.0555132 0.0000
  3   -990.2279851235  -0.122999519833 0.71078998  0.00390829  0.0550423 0.0000
  4   -990.2469684216  -0.018983298085 0.24922199  0.00151305  0.0128288 0.0000
  5   -990.2481195833  -0.001151161791 0.10835054  0.00076203  0.0060914 0.0000
                      *** Initiating the SOSCF procedure ***
                           *** Shutting down DIIS ***
                      *** Re-Reading the Fockian *** 
                      *** Removing any level shift *** 
ITER      Energy       Delta-E        Grad      Rot      Max-DP    RMS-DP
  6   -990.24834316  -0.0002235752  0.001368  0.001368  0.021136  0.000276
               *** Restarting incremental Fock matrix formation ***
  7   -990.24842518  -0.0000820176  0.000880  0.002173  0.031814  0.000269
  8   -990.24846273  -0.0000375582  0.000340  0.002549  0.024264  0.000259
  9   -990.24846928  -0.0000065476  0.000661  0.000696  0.011353  0.000113
 10   -990.24847569  -0.0000064067  0.000114  0.000202  0.005092  0.000037
 11   -990.24847576  -0.0000000749  0.000094  0.000132  0.002845  0.000020
 12   -990.24847613  -0.0000003711  0.000015  0.000039  0.007128  0.000038
 13   -990.24847614  -0.0000000045  0.000006  0.000035  0.006919  0.000057
 14   -990.24847614   0.0000000005  0.000005  0.000007  0.003136  0.000023
                  ***Gradient check signals convergence***
              ***Rediagonalizing the Fockian in SOSCF/NRSCF***

               *****************************************************
               *                     SUCCESS                       *
               *           SCF CONVERGED AFTER  15 CYCLES          *
               *****************************************************

Old exchange energy                            =    -28.433800935 Eh
New exchange energy                            =    -28.433803948 Eh
Exchange energy change after final integration =     -0.000003013 Eh
Total energy after final integration           =   -990.248479155 Eh
Final COS-X integration done in                =     3.657 sec

SMD CDS free energy correction energy :                 5.76966     Kcal/mol
Total Energy after SMD CDS correction =              -990.239284617 Eh

----------------
TOTAL SCF ENERGY
----------------

Total Energy       :         -990.23928462 Eh          -26945.78083 eV

Components:
Nuclear Repulsion  :          705.59154779 Eh           19200.12213 eV
Electronic Energy  :        -1695.83083240 Eh          -46145.90296 eV
One Electron Energy:        -2771.41118385 Eh          -75413.93228 eV
Two Electron Energy:         1075.58035145 Eh           29268.02932 eV
Max COSX asymmetry :            0.00000242 Eh               0.00007 eV
CPCM Dielectric    :           -0.10296658 Eh              -2.80186 eV
SMD CDS (Gcds)     :            0.00919454 Eh               0.25020 eV

Virial components:
Potential Energy   :        -1977.49378592 Eh          -53810.34158 eV
Kinetic Energy     :          987.25450130 Eh           26864.56075 eV
Virial Ratio       :            2.00302332


DFT components:
N(Alpha)           :       48.999981818109 electrons
N(Beta)            :       48.999981818109 electrons
N(Total)           :       97.999963636218 electrons
E(XC)              :      -73.347331798746 Eh       
DFET-embed. en.    :        0.000000000000 Eh       
CPCM Solvation Model Properties:
Surface-charge          :            0.94730378
Charge-correction       :           -0.00581896 Eh              -0.15834 eV
Free-energy (cav+disp)  :            0.00919454 Eh               0.25020 eV

---------------
SCF CONVERGENCE
---------------

  Last Energy change         ...   -2.9488e-09  Tolerance :   1.0000e-08
  Last MAX-Density change    ...    7.9936e-15  Tolerance :   1.0000e-07
  Last RMS-Density change    ...    5.1650e-17  Tolerance :   5.0000e-09
  Last Orbital Gradient      ...    1.9950e-06  Tolerance :   1.0000e-05
  Last Orbital Rotation      ...    1.2647e-06  Tolerance :   1.0000e-05

             **** THE GBW FILE WAS UPDATED (structure_opt.gbw) ****
             **** DENSITY structure_opt.scfp WAS UPDATED ****
             **** ENERGY FILE WAS UPDATED (structure_opt.en.tmp) ****
             **** THE GBW FILE WAS UPDATED (structure_opt.gbw) ****
             **** DENSITY structure_opt.scfp WAS UPDATED ****
----------------
ORBITAL ENERGIES
----------------

  NO   OCC          E(Eh)            E(eV) 
   0   2.0000     -88.721924     -2414.2463 
   1   2.0000     -24.792639      -674.6420 
   2   2.0000     -19.274974      -524.4987 
   3   2.0000     -19.243348      -523.6381 
   4   2.0000     -14.669281      -399.1714 
   5   2.0000     -14.433548      -392.7568 
   6   2.0000     -10.436358      -283.9877 
   7   2.0000     -10.362726      -281.9841 
   8   2.0000     -10.333812      -281.1973 
   9   2.0000     -10.319726      -280.8140 
  10   2.0000     -10.288486      -279.9639 
  11   2.0000     -10.236834      -278.5584 
  12   2.0000      -7.917865      -215.4561 
  13   2.0000      -5.881073      -160.0321 
  14   2.0000      -5.873627      -159.8295 
  15   2.0000      -5.873552      -159.8275 
  16   2.0000      -1.395681       -37.9784 
  17   2.0000      -1.347707       -36.6730 
  18   2.0000      -1.150996       -31.3202 
  19   2.0000      -1.107423       -30.1345 
  20   2.0000      -1.007215       -27.4077 
  21   2.0000      -0.941644       -25.6234 
  22   2.0000      -0.872384       -23.7388 
  23   2.0000      -0.837466       -22.7886 
  24   2.0000      -0.795136       -21.6368 
  25   2.0000      -0.767865       -20.8947 
  26   2.0000      -0.705077       -19.1861 
  27   2.0000      -0.685604       -18.6562 
  28   2.0000      -0.670033       -18.2325 
  29   2.0000      -0.665686       -18.1142 
  30   2.0000      -0.661178       -17.9916 
  31   2.0000      -0.631902       -17.1949 
  32   2.0000      -0.619677       -16.8623 
  33   2.0000      -0.613047       -16.6819 
  34   2.0000      -0.562650       -15.3105 
  35   2.0000      -0.535690       -14.5769 
  36   2.0000      -0.526464       -14.3258 
  37   2.0000      -0.526043       -14.3144 
  38   2.0000      -0.495414       -13.4809 
  39   2.0000      -0.494901       -13.4669 
  40   2.0000      -0.455551       -12.3962 
  41   2.0000      -0.432056       -11.7568 
  42   2.0000      -0.421249       -11.4628 
  43   2.0000      -0.415394       -11.3034 
  44   2.0000      -0.407699       -11.0940 
  45   2.0000      -0.392133       -10.6705 
  46   2.0000      -0.381512       -10.3815 
  47   2.0000      -0.260975        -7.1015 
  48   2.0000      -0.260739        -7.0951 
  49   0.0000      -0.063967        -1.7406 
  50   0.0000       0.024015         0.6535 
  51   0.0000       0.051199         1.3932 
  52   0.0000       0.057284         1.5588 
  53   0.0000       0.064281         1.7492 
  54   0.0000       0.072146         1.9632 
  55   0.0000       0.081815         2.2263 
  56   0.0000       0.089180         2.4267 
  57   0.0000       0.094670         2.5761 
  58   0.0000       0.107266         2.9188 
  59   0.0000       0.112191         3.0529 
  60   0.0000       0.114137         3.1058 
  61   0.0000       0.127777         3.4770 
  62   0.0000       0.132262         3.5990 
  63   0.0000       0.137940         3.7535 
  64   0.0000       0.141637         3.8541 
  65   0.0000       0.151384         4.1194 
  66   0.0000       0.159968         4.3529 
  67   0.0000       0.163763         4.4562 
  68   0.0000       0.167431         4.5560 
  69   0.0000       0.168641         4.5890 
  70   0.0000       0.174912         4.7596 
  71   0.0000       0.178017         4.8441 
  72   0.0000       0.183741         4.9998 
  73   0.0000       0.187980         5.1152 
  74   0.0000       0.191051         5.1988 
  75   0.0000       0.197436         5.3725 
  76   0.0000       0.202328         5.5056 
  77   0.0000       0.204470         5.5639 
  78   0.0000       0.208146         5.6639 
  79   0.0000       0.218564         5.9474 
  80   0.0000       0.221030         6.0145 
  81   0.0000       0.224719         6.1149 
  82   0.0000       0.227683         6.1956 
  83   0.0000       0.239109         6.5065 
  84   0.0000       0.243076         6.6144 
  85   0.0000       0.250598         6.8191 
  86   0.0000       0.255080         6.9411 
  87   0.0000       0.262021         7.1300 
  88   0.0000       0.266960         7.2643 
  89   0.0000       0.270125         7.3505 
  90   0.0000       0.274831         7.4785 
  91   0.0000       0.279848         7.6150 
  92   0.0000       0.281957         7.6724 
  93   0.0000       0.291566         7.9339 
  94   0.0000       0.294009         8.0004 
  95   0.0000       0.300787         8.1848 
  96   0.0000       0.312550         8.5049 
  97   0.0000       0.316723         8.6185 
  98   0.0000       0.318831         8.6758 
  99   0.0000       0.327811         8.9202 
 100   0.0000       0.336986         9.1699 
 101   0.0000       0.342297         9.3144 
 102   0.0000       0.351412         9.5624 
 103   0.0000       0.355991         9.6870 
 104   0.0000       0.367596        10.0028 
 105   0.0000       0.372649        10.1403 
 106   0.0000       0.380734        10.3603 
 107   0.0000       0.388114        10.5611 
 108   0.0000       0.402349        10.9485 
 109   0.0000       0.406879        11.0718 
 110   0.0000       0.410361        11.1665 
 111   0.0000       0.418088        11.3768 
 112   0.0000       0.423255        11.5173 
 113   0.0000       0.430484        11.7141 
 114   0.0000       0.442548        12.0423 
 115   0.0000       0.454929        12.3793 
 116   0.0000       0.463476        12.6118 
 117   0.0000       0.481286        13.0965 
 118   0.0000       0.485584        13.2134 
 119   0.0000       0.490790        13.3551 
 120   0.0000       0.496625        13.5139 
 121   0.0000       0.503469        13.7001 
 122   0.0000       0.522226        14.2105 
 123   0.0000       0.534861        14.5543 
 124   0.0000       0.539861        14.6904 
 125   0.0000       0.556575        15.1452 
 126   0.0000       0.584862        15.9149 
 127   0.0000       0.613678        16.6990 
 128   0.0000       0.622365        16.9354 
 129   0.0000       0.629104        17.1188 
 130   0.0000       0.637335        17.3428 
 131   0.0000       0.648369        17.6430 
 132   0.0000       0.664121        18.0717 
 133   0.0000       0.666707        18.1420 
 134   0.0000       0.702553        19.1174 
 135   0.0000       0.709106        19.2958 
 136   0.0000       0.725663        19.7463 
 137   0.0000       0.737111        20.0578 
 138   0.0000       0.757292        20.6070 
 139   0.0000       0.771080        20.9822 
 140   0.0000       0.777456        21.1557 
 141   0.0000       0.780423        21.2364 
 142   0.0000       0.814638        22.1674 
 143   0.0000       0.835377        22.7318 
 144   0.0000       0.849575        23.1181 
 145   0.0000       0.856582        23.3088 
 146   0.0000       0.864191        23.5158 
 147   0.0000       0.881690        23.9920 
 148   0.0000       0.906320        24.6622 
 149   0.0000       0.914783        24.8925 
 150   0.0000       0.920108        25.0374 
 151   0.0000       0.934957        25.4415 
 152   0.0000       0.948537        25.8110 
 153   0.0000       0.961394        26.1609 
 154   0.0000       0.974025        26.5046 
 155   0.0000       0.986381        26.8408 
 156   0.0000       0.993694        27.0398 
 157   0.0000       1.004979        27.3469 
 158   0.0000       1.010869        27.5072 
 159   0.0000       1.015514        27.6335 
 160   0.0000       1.023006        27.8374 
 161   0.0000       1.042010        28.3545 
 162   0.0000       1.048216        28.5234 
 163   0.0000       1.070607        29.1327 
 164   0.0000       1.081984        29.4423 
 165   0.0000       1.083848        29.4930 
 166   0.0000       1.090625        29.6774 
 167   0.0000       1.143646        31.1202 
 168   0.0000       1.151345        31.3297 
 169   0.0000       1.164789        31.6955 
 170   0.0000       1.178496        32.0685 
 171   0.0000       1.202689        32.7268 
 172   0.0000       1.210002        32.9258 
 173   0.0000       1.221276        33.2326 
 174   0.0000       1.250312        34.0227 
 175   0.0000       1.262607        34.3573 
 176   0.0000       1.278394        34.7869 
 177   0.0000       1.281984        34.8846 
 178   0.0000       1.284389        34.9500 
 179   0.0000       1.295516        35.2528 
 180   0.0000       1.307984        35.5920 
 181   0.0000       1.357933        36.9512 
 182   0.0000       1.396732        38.0070 
 183   0.0000       1.407271        38.2938 
 184   0.0000       1.475731        40.1567 
 185   0.0000       1.516538        41.2671 
 186   0.0000       1.545083        42.0438 
 187   0.0000       1.587967        43.2108 
 188   0.0000       1.589109        43.2419 
 189   0.0000       1.594328        43.3839 
 190   0.0000       1.620557        44.0976 
 191   0.0000       1.638145        44.5762 
 192   0.0000       1.658044        45.1177 
 193   0.0000       1.658591        45.1326 
 194   0.0000       1.697920        46.2027 
 195   0.0000       1.700336        46.2685 
 196   0.0000       1.713178        46.6179 
 197   0.0000       1.718943        46.7748 
 198   0.0000       1.752238        47.6808 
 199   0.0000       1.765175        48.0328 
 200   0.0000       1.788997        48.6811 
 201   0.0000       1.806793        49.1653 
 202   0.0000       1.815151        49.3928 
 203   0.0000       1.822232        49.5855 
 204   0.0000       1.856327        50.5132 
 205   0.0000       1.869435        50.8699 
 206   0.0000       1.876514        51.0625 
 207   0.0000       1.912435        52.0400 
 208   0.0000       1.938833        52.7583 
 209   0.0000       1.950168        53.0668 
 210   0.0000       1.976418        53.7811 
 211   0.0000       1.977851        53.8201 
 212   0.0000       1.995532        54.3012 
 213   0.0000       2.016220        54.8641 
 214   0.0000       2.035884        55.3992 
 215   0.0000       2.042654        55.5834 
 216   0.0000       2.083079        56.6835 
 217   0.0000       2.120074        57.6901 
 218   0.0000       2.144545        58.3560 
 219   0.0000       2.150193        58.5097 
 220   0.0000       2.174814        59.1797 
 221   0.0000       2.178251        59.2732 
 222   0.0000       2.184142        59.4335 
 223   0.0000       2.208477        60.0957 
 224   0.0000       2.295571        62.4657 
 225   0.0000       2.325068        63.2683 
 226   0.0000       2.336765        63.5866 
 227   0.0000       2.339873        63.6712 
 228   0.0000       2.409211        65.5580 
 229   0.0000       2.440121        66.3991 
 230   0.0000       2.501583        68.0715 
 231   0.0000       2.566023        69.8250 
 232   0.0000       2.595741        70.6337 
 233   0.0000       2.599495        70.7358 
 234   0.0000       2.610904        71.0463 
 235   0.0000       2.629163        71.5432 
 236   0.0000       2.663746        72.4842 
 237   0.0000       2.670075        72.6564 
 238   0.0000       2.673437        72.7479 
 239   0.0000       2.676511        72.8316 
 240   0.0000       2.705823        73.6292 
 241   0.0000       2.772645        75.4475 
 242   0.0000       2.790087        75.9221 
 243   0.0000       2.837689        77.2174 
 244   0.0000       2.844107        77.3921 
 245   0.0000       2.861726        77.8715 
 246   0.0000       2.871418        78.1353 
 247   0.0000       2.892584        78.7112 
 248   0.0000       2.900023        78.9136 
 249   0.0000       2.905146        79.0530 
 250   0.0000       2.939794        79.9959 
 251   0.0000       2.944634        80.1276 
 252   0.0000       2.961625        80.5899 
 253   0.0000       2.989668        81.3530 
 254   0.0000       2.991439        81.4012 
 255   0.0000       3.005068        81.7721 
 256   0.0000       3.028704        82.4152 
 257   0.0000       3.109279        84.6078 
 258   0.0000       3.154374        85.8349 
 259   0.0000       3.190180        86.8092 
 260   0.0000       3.271509        89.0223 
 261   0.0000       3.308604        90.0317 
 262   0.0000       3.311348        90.1064 
 263   0.0000       3.360605        91.4467 
 264   0.0000       3.376209        91.8713 
 265   0.0000       3.459963        94.1504 
 266   0.0000       3.500242        95.2464 
 267   0.0000       3.560964        96.8988 
 268   0.0000       3.598709        97.9259 
 269   0.0000       3.682318       100.2010 
 270   0.0000       3.704712       100.8103 
 271   0.0000       3.762223       102.3753 
 272   0.0000       3.854320       104.8814 
 273   0.0000       3.888281       105.8055 
 274   0.0000       3.890391       105.8629 
 275   0.0000       3.892136       105.9104 
 276   0.0000       3.905640       106.2779 
 277   0.0000       3.925389       106.8153 
 278   0.0000       4.023239       109.4779 
 279   0.0000       4.064312       110.5955 
 280   0.0000       4.124070       112.2217 
 281   0.0000       4.147314       112.8542 
 282   0.0000       4.170501       113.4851 
 283   0.0000       4.412583       120.0725 
 284   0.0000       4.486182       122.0752 
 285   0.0000       4.504685       122.5787 
 286   0.0000       4.763332       129.6168 
 287   0.0000       4.944220       134.5391 
 288   0.0000       5.073426       138.0549 
 289   0.0000       5.100603       138.7945 
 290   0.0000       5.191226       141.2604 
 291   0.0000       5.221201       142.0761 
 292   0.0000       5.318281       144.7178 
 293   0.0000       5.699621       155.0946 
 294   0.0000       6.130812       166.8279 
 295   0.0000       6.417444       174.6275 
 296   0.0000       6.540609       177.9790 
 297   0.0000       6.841484       186.1662 
 298   0.0000       8.003950       217.7986 
 299   0.0000      17.556272       477.7305 
 300   0.0000      17.556556       477.7382 
 301   0.0000      17.671177       480.8572 
 302   0.0000      23.653998       643.6580 
 303   0.0000      23.894851       650.2119 
 304   0.0000      23.987645       652.7370 
 305   0.0000      24.036028       654.0536 
 306   0.0000      24.074268       655.0941 
 307   0.0000      24.183895       658.0772 
 308   0.0000      35.376045       962.6311 
 309   0.0000      35.660393       970.3686 
 310   0.0000      49.900093      1357.8506 
 311   0.0000      49.964167      1359.5941 
 312   0.0000      66.794771      1817.5781 
 313   0.0000     188.999099      5142.9269 

--------------------
FRAGMENT INFORMATION
--------------------
Fragment  1:    0   1   2   3   4   5 
Fragment  2:    6   7   8   9  10  11  12 
Fragment  3:   13  14  15  16 
Fragment  4:   17 


                    ********************************
                    * MULLIKEN POPULATION ANALYSIS *
                    ********************************

-------------------------
MULLIKEN FRAGMENT CHARGES
-------------------------
 Fragment   0 :  -0.373833
 Fragment   1 :   0.360472
 Fragment   2 :  -0.083554
 Fragment   3 :  -0.903085
Sum of fragment charges:   -1.0000000

---------------------------------
MULLIKEN FRAGMENT OVERLAP CHARGES
---------------------------------
                  0          1          2          3    
      0      19.999675   0.379901  -0.004472  -0.162175
      1       0.379901  35.115488   0.003512   0.072605
      2      -0.004472   0.003512  11.707670  -0.613521
      3      -0.162175   0.072605  -0.613521  17.254630

-----------------------
MULLIKEN ATOMIC CHARGES
-----------------------
   0 C :   -0.009600
   1 N :   -0.172382
   2 C :   -0.277470
   3 C :   -0.250332
   4 C :    0.467711
   5 C :   -0.131762
   6 N :   -0.068251
   7 O :   -0.056073
   8 O :   -0.240204
   9 F :   -0.105235
  10 H :    0.222966
  11 H :    0.279508
  12 H :    0.327761
  13 C :   -0.485579
  14 H :    0.133410
  15 H :    0.134400
  16 H :    0.134215
  17 S :   -0.903085
Sum of atomic charges:   -1.0000000

--------------------------------
MULLIKEN REDUCED ORBITAL CHARGES
--------------------------------
  0 C s       :     3.262933  s :     3.262933
      pz      :     0.672215  p :     2.586230
      px      :     0.970516
      py      :     0.943499
      dz2     :     0.052782  d :     0.160436
      dxz     :     0.048759
      dyz     :     0.028372
      dx2y2   :     0.013781
      dxy     :     0.016743
  1 N s       :     3.603875  s :     3.603875
      pz      :     1.144104  p :     3.537976
      px      :     1.234511
      py      :     1.159361
      dz2     :     0.008129  d :     0.030531
      dxz     :     0.007333
      dyz     :     0.004705
      dx2y2   :     0.005512
      dxy     :     0.004851
  2 C s       :     3.403381  s :     3.403381
      pz      :     0.815377  p :     2.790205
      px      :     1.130335
      py      :     0.844494
      dz2     :     0.023616  d :     0.083884
      dxz     :     0.031881
      dyz     :     0.014753
      dx2y2   :     0.007207
      dxy     :     0.006425
  3 C s       :     3.216288  s :     3.216288
      pz      :     1.144288  p :     2.980795
      px      :     0.873317
      py      :     0.963189
      dz2     :     0.015407  d :     0.053249
      dxz     :     0.017420
      dyz     :     0.005096
      dx2y2   :     0.008241
      dxy     :     0.007084
  4 C s       :     2.468565  s :     2.468565
      pz      :     0.908843  p :     3.006547
      px      :     1.257661
      py      :     0.840043
      dz2     :     0.016571  d :     0.057177
      dxz     :     0.015860
      dyz     :     0.010608
      dx2y2   :     0.007216
      dxy     :     0.006921
  5 C s       :     3.360705  s :     3.360705
      pz      :     1.088769  p :     2.697915
      px      :     0.476398
      py      :     1.132749
      dz2     :     0.013628  d :     0.073141
      dxz     :     0.029762
      dyz     :     0.010392
      dx2y2   :     0.011210
      dxy     :     0.008149
  6 N s       :     3.586884  s :     3.586884
      pz      :     1.058603  p :     3.372338
      px      :     1.215388
      py      :     1.098347
      dz2     :     0.027720  d :     0.109030
      dxz     :     0.039342
      dyz     :     0.023083
      dx2y2   :     0.008550
      dxy     :     0.010335
  7 O s       :     3.779338  s :     3.779338
      pz      :     1.026788  p :     4.258053
      px      :     1.828223
      py      :     1.403042
      dz2     :     0.009706  d :     0.018682
      dxz     :     0.003509
      dyz     :     0.005298
      dx2y2   :     0.000102
      dxy     :     0.000067
  8 O s       :     3.824400  s :     3.824400
      pz      :     1.624922  p :     4.403699
      px      :     1.218236
      py      :     1.560541
      dz2     :     0.001058  d :     0.012105
      dxz     :     0.004899
      dyz     :     0.000879
      dx2y2   :     0.003115
      dxy     :     0.002155
  9 F s       :     3.919247  s :     3.919247
      pz      :     1.390405  p :     5.180663
      px      :     1.915896
      py      :     1.874362
      dz2     :     0.003092  d :     0.005325
      dxz     :     0.000997
      dyz     :     0.001199
      dx2y2   :     0.000027
      dxy     :     0.000009
 10 H s       :     0.750693  s :     0.750693
      pz      :     0.006422  p :     0.026341
      px      :     0.015158
      py      :     0.004762
 11 H s       :     0.695527  s :     0.695527
      pz      :     0.016339  p :     0.024965
      px      :     0.003686
      py      :     0.004940
 12 H s       :     0.646725  s :     0.646725
      pz      :     0.007738  p :     0.025514
      px      :     0.013358
      py      :     0.004418
 13 C s       :     3.347151  s :     3.347151
      pz      :     0.997116  p :     3.085865
      px      :     1.038431
      py      :     1.050319
      dz2     :     0.015231  d :     0.052563
      dxz     :     0.009470
      dyz     :     0.008033
      dx2y2   :     0.015365
      dxy     :     0.004464
 14 H s       :     0.843938  s :     0.843938
      pz      :     0.004638  p :     0.022652
      px      :     0.004679
      py      :     0.013335
 15 H s       :     0.842874  s :     0.842874
      pz      :     0.010725  p :     0.022726
      px      :     0.006146
      py      :     0.005855
 16 H s       :     0.843078  s :     0.843078
      pz      :     0.004650  p :     0.022706
      px      :     0.012767
      py      :     0.005290
 17 S s       :     5.953527  s :     5.953527
      pz      :     3.304477  p :    10.918163
      px      :     3.759924
      py      :     3.853762
      dz2     :     0.008328  d :     0.031394
      dxz     :     0.011132
      dyz     :     0.007222
      dx2y2   :     0.001964
      dxy     :     0.002748


                     *******************************
                     * LOEWDIN POPULATION ANALYSIS *
                     *******************************

------------------------
LOEWDIN FRAGMENT CHARGES
------------------------
 Fragment   0 :  -0.006048
 Fragment   1 :  -0.092750
 Fragment   2 :  -0.333751
 Fragment   3 :  -0.567451

----------------------------
LOEWDIN FRAGMENT BOND ORDERS
----------------------------
                  0          1          2          3    
      0      56.998732   6.763834   0.018739   0.164101
      1       6.763834  43.815262   0.009070   0.082156
      2       0.018739   0.009070  15.377459   1.709478
      3       0.164101   0.082156   1.709478  16.567451

----------------------
LOEWDIN ATOMIC CHARGES
----------------------
   0 C :    0.111205
   1 N :   -0.111870
   2 C :    0.034233
   3 C :   -0.050394
   4 C :    0.076392
   5 C :   -0.065615
   6 N :    0.241271
   7 O :   -0.156115
   8 O :   -0.340778
   9 F :   -0.079000
  10 H :    0.060863
  11 H :    0.081468
  12 H :    0.099541
  13 C :   -0.347618
  14 H :    0.005519
  15 H :    0.003969
  16 H :    0.004379
  17 S :   -0.567451

-------------------------------
LOEWDIN REDUCED ORBITAL CHARGES
-------------------------------
  0 C s       :     2.743905  s :     2.743905
      pz      :     0.849136  p :     2.815666
      px      :     1.081160
      py      :     0.885369
      dz2     :     0.112611  d :     0.329225
      dxz     :     0.100591
      dyz     :     0.050327
      dx2y2   :     0.033911
      dxy     :     0.031785
  1 N s       :     3.150843  s :     3.150843
      pz      :     1.301844  p :     3.904022
      px      :     1.415929
      py      :     1.186249
      dz2     :     0.017319  d :     0.057005
      dxz     :     0.016007
      dyz     :     0.007697
      dx2y2   :     0.009585
      dxy     :     0.006396
  2 C s       :     2.791215  s :     2.791215
      pz      :     1.047973  p :     2.993014
      px      :     1.113508
      py      :     0.831533
      dz2     :     0.060457  d :     0.181538
      dxz     :     0.068512
      dyz     :     0.027923
      dx2y2   :     0.014049
      dxy     :     0.010598
  3 C s       :     2.781703  s :     2.781703
      pz      :     1.083796  p :     3.144266
      px      :     1.098859
      py      :     0.961611
      dz2     :     0.034312  d :     0.124425
      dxz     :     0.045034
      dyz     :     0.008011
      dx2y2   :     0.022269
      dxy     :     0.014799
  4 C s       :     2.779024  s :     2.779024
      pz      :     1.065616  p :     3.016093
      px      :     1.108520
      py      :     0.841957
      dz2     :     0.040943  d :     0.128490
      dxz     :     0.039162
      dyz     :     0.021371
      dx2y2   :     0.015071
      dxy     :     0.011944
  5 C s       :     2.757809  s :     2.757809
      pz      :     1.088431  p :     3.127402
      px      :     0.956873
      py      :     1.082097
      dz2     :     0.039899  d :     0.180404
      dxz     :     0.071790
      dyz     :     0.019950
      dx2y2   :     0.031427
      dxy     :     0.017338
  6 N s       :     3.052159  s :     3.052159
      pz      :     1.206002  p :     3.500153
      px      :     1.215331
      py      :     1.078819
      dz2     :     0.060432  d :     0.206417
      dxz     :     0.076150
      dyz     :     0.035722
      dx2y2   :     0.017510
      dxy     :     0.016602
  7 O s       :     3.581098  s :     3.581098
      pz      :     1.283905  p :     4.542725
      px      :     1.838977
      py      :     1.419842
      dz2     :     0.020427  d :     0.032292
      dxz     :     0.005155
      dyz     :     0.006521
      dx2y2   :     0.000119
      dxy     :     0.000071
  8 O s       :     3.667270  s :     3.667270
      pz      :     1.709990  p :     4.653039
      px      :     1.370204
      py      :     1.572845
      dz2     :     0.001545  d :     0.020469
      dxz     :     0.009260
      dyz     :     0.001172
      dx2y2   :     0.005707
      dxy     :     0.002785
  9 F s       :     3.714933  s :     3.714933
      pz      :     1.535847  p :     5.356705
      px      :     1.934524
      py      :     1.886334
      dz2     :     0.004758  d :     0.007362
      dxz     :     0.001185
      dyz     :     0.001374
      dx2y2   :     0.000037
      dxy     :     0.000009
 10 H s       :     0.863872  s :     0.863872
      pz      :     0.018635  p :     0.075265
      px      :     0.044524
      py      :     0.012106
 11 H s       :     0.846063  s :     0.846063
      pz      :     0.047782  p :     0.072469
      px      :     0.011247
      py      :     0.013440
 12 H s       :     0.827261  s :     0.827261
      pz      :     0.023083  p :     0.073197
      px      :     0.038643
      py      :     0.011471
 13 C s       :     2.855337  s :     2.855337
      pz      :     1.141288  p :     3.385628
      px      :     1.124038
      py      :     1.120302
      dz2     :     0.031195  d :     0.106652
      dxz     :     0.020289
      dyz     :     0.016545
      dx2y2   :     0.030179
      dxy     :     0.008445
 14 H s       :     0.922712  s :     0.922712
      pz      :     0.014397  p :     0.071769
      px      :     0.013878
      py      :     0.043495
 15 H s       :     0.924161  s :     0.924161
      pz      :     0.035649  p :     0.071870
      px      :     0.018619
      py      :     0.017602
 16 H s       :     0.923713  s :     0.923713
      pz      :     0.014324  p :     0.071908
      px      :     0.041850
      py      :     0.015734
 17 S s       :     5.576998  s :     5.576998
      pz      :     3.410459  p :    10.953173
      px      :     3.732813
      py      :     3.809901
      dz2     :     0.009768  d :     0.037281
      dxz     :     0.013421
      dyz     :     0.008603
      dx2y2   :     0.002226
      dxy     :     0.003262


                      *****************************
                      * MAYER POPULATION ANALYSIS *
                      *****************************

  NA   - Mulliken gross atomic population
  ZA   - Total nuclear charge
  QA   - Mulliken gross atomic charge
  VA   - Mayer's total valence
  BVA  - Mayer's bonded valence
  FA   - Mayer's free valence

  ATOM       NA         ZA         QA         VA         BVA        FA
  0 C      6.0096     6.0000    -0.0096     4.2775     4.2775     0.0000
  1 N      7.1724     7.0000    -0.1724     2.7054     2.7054     0.0000
  2 C      6.2775     6.0000    -0.2775     3.9718     3.9718     0.0000
  3 C      6.2503     6.0000    -0.2503     4.3971     4.3971     0.0000
  4 C      5.5323     6.0000     0.4677     4.0199     4.0199    -0.0000
  5 C      6.1318     6.0000    -0.1318     3.3700     3.3700     0.0000
  6 N      7.0683     7.0000    -0.0683     3.9163     3.9163    -0.0000
  7 O      8.0561     8.0000    -0.0561     2.1913     2.1913     0.0000
  8 O      8.2402     8.0000    -0.2402     1.9932     1.9932     0.0000
  9 F      9.1052     9.0000    -0.1052     0.9638     0.9638    -0.0000
 10 H      0.7770     1.0000     0.2230     0.9586     0.9586     0.0000
 11 H      0.7205     1.0000     0.2795     0.9109     0.9109     0.0000
 12 H      0.6722     1.0000     0.3278     0.8301     0.8301     0.0000
 13 C      6.4856     6.0000    -0.4856     3.6336     3.6336     0.0000
 14 H      0.8666     1.0000     0.1334     0.9417     0.9417    -0.0000
 15 H      0.8656     1.0000     0.1344     0.9274     0.9274    -0.0000
 16 H      0.8658     1.0000     0.1342     0.9337     0.9337     0.0000
 17 S     16.9031    16.0000    -0.9031     0.6521     0.6521    -0.0000

  Mayer bond orders larger than 0.100000
B(  0-C ,  1-N ) :   1.2638 B(  0-C ,  2-C ) :   0.1841 B(  0-C ,  3-C ) :   0.1337 
B(  0-C ,  4-C ) :   0.2732 B(  0-C ,  5-C ) :   1.2282 B(  0-C ,  6-N ) :  -0.1780 
B(  0-C ,  9-F ) :   1.3898 B(  1-N ,  2-C ) :   1.2433 B(  1-N ,  5-C ) :   0.1721 
B(  2-C ,  3-C ) :   1.5626 B(  2-C ,  5-C ) :   0.1089 B(  2-C , 10-H ) :   0.9070 
B(  3-C ,  4-C ) :   1.5080 B(  3-C ,  8-O ) :   0.1389 B(  3-C , 11-H ) :   0.8190 
B(  4-C ,  5-C ) :   1.5231 B(  4-C ,  6-N ) :  -0.1388 B(  4-C ,  8-O ) :   0.1606 
B(  4-C ,  9-F ) :  -0.1245 B(  4-C , 12-H ) :   0.7555 B(  5-C ,  6-N ) :   0.7529 
B(  5-C ,  8-O ) :  -0.1628 B(  5-C ,  9-F ) :  -0.3564 B(  5-C , 12-H ) :   0.1127 
B(  6-N ,  7-O ) :   1.8474 B(  6-N ,  8-O ) :   1.6518 B(  7-O ,  8-O ) :   0.2578 
B( 10-H , 17-S ) :   0.1205 B( 13-C , 14-H ) :   0.9863 B( 13-C , 15-H ) :   0.9802 
B( 13-C , 16-H ) :   0.9877 B( 13-C , 17-S ) :   0.6916 

-------
TIMINGS
-------

Total SCF time: 0 days 0 hours 0 min 40 sec 

Total time                  ....      40.275 sec
Sum of individual times     ....      39.319 sec  ( 97.6%)

Fock matrix formation       ....      36.050 sec  ( 89.5%)
  Split-RI-J                ....       2.558 sec  (  7.1% of F)
  Chain of spheres X        ....      23.478 sec  ( 65.1% of F)
  XC integration            ....       5.401 sec  ( 15.0% of F)
    Basis function eval.    ....       0.428 sec  (  7.9% of XC)
[...]
 290   0.0000       5.206161       141.6668 
 291   0.0000       5.283242       143.7643 
 292   0.0000       5.374537       146.2486 
 293   0.0000       5.849690       159.1782 
 294   0.0000       6.340376       172.5304 
 295   0.0000       6.426776       174.8815 
 296   0.0000       6.551426       178.2734 
 297   0.0000       6.862670       186.7427 
 298   0.0000       8.005078       217.8292 
 299   0.0000      17.556862       477.7465 
 300   0.0000      17.557056       477.7518 
 301   0.0000      17.671599       480.8686 
 302   0.0000      23.705132       645.0494 
 303   0.0000      23.957220       651.9091 
 304   0.0000      24.023138       653.7028 
 305   0.0000      24.036076       654.0549 
 306   0.0000      24.134127       656.7230 
 307   0.0000      24.247389       659.8050 
 308   0.0000      35.451955       964.6967 
 309   0.0000      35.738879       972.5044 
 310   0.0000      49.923613      1358.4906 
 311   0.0000      50.031396      1361.4235 
 312   0.0000      66.808680      1817.9566 
 313   0.0000     189.000394      5142.9622 

--------------------
FRAGMENT INFORMATION
--------------------
Fragment  1:    0   1   2   3   4   5 
Fragment  2:    6   7   8   9  10  11  12 
Fragment  3:   13  14  15  16 
Fragment  4:   17 


                    ********************************
                    * MULLIKEN POPULATION ANALYSIS *
                    ********************************

-------------------------
MULLIKEN FRAGMENT CHARGES
-------------------------
 Fragment   0 :  -0.416260
 Fragment   1 :   0.405748
 Fragment   2 :  -0.085038
 Fragment   3 :  -0.904450
Sum of fragment charges:   -1.0000000

---------------------------------
MULLIKEN FRAGMENT OVERLAP CHARGES
---------------------------------
                  0          1          2          3    
      0      17.376888   0.283366  -0.002674  -0.154607
      1       0.283366  35.175293   0.003520   0.059041
      2      -0.002674   0.003520  11.706996  -0.613058
      3      -0.154607   0.059041  -0.613058  17.258763

-----------------------
MULLIKEN ATOMIC CHARGES
-----------------------
   0 C :    0.032490
   1 N :   -0.166537
   2 C :   -0.263580
   3 C :   -0.332437
   4 C :    0.553823
   5 C :   -0.240019
   6 N :   -0.005414
   7 O :   -0.166720
   8 O :   -0.119211
   9 F :   -0.122795
  10 H :    0.219031
  11 H :    0.276501
  12 H :    0.324356
  13 C :   -0.486108
  14 H :    0.133095
  15 H :    0.134183
  16 H :    0.133792
  17 S :   -0.904450
Sum of atomic charges:   -1.0000000

--------------------------------
MULLIKEN REDUCED ORBITAL CHARGES
--------------------------------
  0 C s       :     3.213248  s :     3.213248
      pz      :     0.665534  p :     2.584378
      px      :     0.970852
      py      :     0.947992
      dz2     :     0.057482  d :     0.169884
      dxz     :     0.049983
      dyz     :     0.029363
      dx2y2   :     0.014665
      dxy     :     0.018390
  1 N s       :     3.584851  s :     3.584851
      pz      :     1.146709  p :     3.547255
      px      :     1.248533
      py      :     1.152013
      dz2     :     0.008557  d :     0.034431
      dxz     :     0.008854
      dyz     :     0.005218
      dx2y2   :     0.006026
      dxy     :     0.005777
  2 C s       :     3.347237  s :     3.347237
      pz      :     0.832788  p :     2.827880
      px      :     1.134223
      py      :     0.860870
      dz2     :     0.024850  d :     0.088463
      dxz     :     0.033496
      dyz     :     0.015763
      dx2y2   :     0.007707
      dxy     :     0.006647
  3 C s       :     3.277997  s :     3.277997
      pz      :     1.145647  p :     2.998751
      px      :     0.886143
      py      :     0.966961
      dz2     :     0.016046  d :     0.055689
      dxz     :     0.018312
      dyz     :     0.005647
      dx2y2   :     0.008223
      dxy     :     0.007462
  4 C s       :     2.346132  s :     2.346132
      pz      :     0.939694  p :     3.040270
      px      :     1.258043
      py      :     0.842534
      dz2     :     0.017410  d :     0.059775
      dxz     :     0.015923
      dyz     :     0.011414
      dx2y2   :     0.007812
      dxy     :     0.007217
  5 C s       :     3.416851  s :     3.416851
      pz      :     1.111519  p :     2.749672
      px      :     0.498990
      py      :     1.139164
      dz2     :     0.013026  d :     0.073496
      dxz     :     0.031054
      dyz     :     0.010343
      dx2y2   :     0.010965
      dxy     :     0.008108
  6 N s       :     3.485947  s :     3.485947
      pz      :     1.041902  p :     3.380625
      px      :     1.234522
      py      :     1.104202
      dz2     :     0.037801  d :     0.138841
      dxz     :     0.045238
      dyz     :     0.028879
      dx2y2   :     0.012057
      dxy     :     0.014867
  7 O s       :     3.804938  s :     3.804938
      pz      :     1.022815  p :     4.343630
      px      :     1.840344
      py      :     1.480471
      dz2     :     0.009775  d :     0.018152
      dxz     :     0.003238
      dyz     :     0.004994
      dx2y2   :     0.000090
      dxy     :     0.000055
  8 O s       :     3.784301  s :     3.784301
      pz      :     1.558745  p :     4.314800
      px      :     1.323388
      py      :     1.432667
      dz2     :     0.002384  d :     0.020109
      dxz     :     0.007332
      dyz     :     0.002032
      dx2y2   :     0.004280
      dxy     :     0.004081
  9 F s       :     3.918578  s :     3.918578
      pz      :     1.401266  p :     5.198996
      px      :     1.918275
      py      :     1.879455
      dz2     :     0.003038  d :     0.005221
      dxz     :     0.000974
      dyz     :     0.001170
      dx2y2   :     0.000030
      dxy     :     0.000011
 10 H s       :     0.755329  s :     0.755329
      pz      :     0.005556  p :     0.025640
      px      :     0.015295
      py      :     0.004789
 11 H s       :     0.698348  s :     0.698348
      pz      :     0.016366  p :     0.025151
      px      :     0.003800
      py      :     0.004985
 12 H s       :     0.649809  s :     0.649809
      pz      :     0.007283  p :     0.025835
      px      :     0.014069
      py      :     0.004482
 13 C s       :     3.347129  s :     3.347129
      pz      :     0.998797  p :     3.086407
      px      :     1.037049
      py      :     1.050561
      dz2     :     0.015256  d :     0.052572
      dxz     :     0.009208
      dyz     :     0.008186
      dx2y2   :     0.015476
      dxy     :     0.004446
 14 H s       :     0.844233  s :     0.844233
      pz      :     0.004658  p :     0.022672
      px      :     0.004695
      py      :     0.013319
 15 H s       :     0.843115  s :     0.843115
      pz      :     0.010776  p :     0.022702
      px      :     0.005999
      py      :     0.005927
 16 H s       :     0.843518  s :     0.843518
      pz      :     0.004662  p :     0.022690
      px      :     0.012768
      py      :     0.005261
 17 S s       :     5.953629  s :     5.953629
      pz      :     3.316050  p :    10.919366
      px      :     3.744385
      py      :     3.858931
      dz2     :     0.008034  d :     0.031456
      dxz     :     0.011520
      dyz     :     0.006987
      dx2y2   :     0.002066
      dxy     :     0.002848


                     *******************************
                     * LOEWDIN POPULATION ANALYSIS *
                     *******************************

------------------------
LOEWDIN FRAGMENT CHARGES
------------------------
 Fragment   0 :  -0.032564
 Fragment   1 :  -0.064582
 Fragment   2 :  -0.335169
 Fragment   3 :  -0.567685

----------------------------
LOEWDIN FRAGMENT BOND ORDERS
----------------------------
                  0          1          2          3    
      0      57.238071   6.708719   0.018734   0.163714
      1       6.708719  44.235356   0.008987   0.081441
      2       0.018734   0.008987  15.378929   1.710378
      3       0.163714   0.081441   1.710378  16.567685

----------------------
LOEWDIN ATOMIC CHARGES
----------------------
   0 C :    0.081814
   1 N :   -0.082633
   2 C :    0.014712
   3 C :   -0.051309
   4 C :    0.071410
   5 C :   -0.066557
   6 N :    0.202597
   7 O :   -0.221622
   8 O :   -0.196038
   9 F :   -0.089857
  10 H :    0.058938
  11 H :    0.082655
  12 H :    0.098745
  13 C :   -0.348416
  14 H :    0.005095
  15 H :    0.003867
  16 H :    0.004285
  17 S :   -0.567685

-------------------------------
LOEWDIN REDUCED ORBITAL CHARGES
-------------------------------
  0 C s       :     2.731307  s :     2.731307
      pz      :     0.851642  p :     2.836163
      px      :     1.095707
      py      :     0.888813
      dz2     :     0.122310  d :     0.350717
      dxz     :     0.103490
      dyz     :     0.052139
      dx2y2   :     0.037149
      dxy     :     0.035629
  1 N s       :     3.108328  s :     3.108328
      pz      :     1.297472  p :     3.909339
      px      :     1.435726
      py      :     1.176142
      dz2     :     0.018690  d :     0.064965
      dxz     :     0.018965
      dyz     :     0.009079
      dx2y2   :     0.010535
      dxy     :     0.007696
  2 C s       :     2.779322  s :     2.779322
      pz      :     1.055835  p :     3.013262
      px      :     1.109904
      py      :     0.847523
      dz2     :     0.063469  d :     0.192704
      dxz     :     0.072867
      dyz     :     0.030398
      dx2y2   :     0.014990
      dxy     :     0.010979
  3 C s       :     2.773186  s :     2.773186
      pz      :     1.081589  p :     3.148583
      px      :     1.103634
      py      :     0.963359
      dz2     :     0.035470  d :     0.129541
      dxz     :     0.047045
      dyz     :     0.008802
      dx2y2   :     0.022471
      dxy     :     0.015753
  4 C s       :     2.769109  s :     2.769109
      pz      :     1.074582  p :     3.024438
      px      :     1.104983
      py      :     0.844874
      dz2     :     0.042955  d :     0.135043
      dxz     :     0.040210
      dyz     :     0.023152
      dx2y2   :     0.016165
      dxy     :     0.012561
  5 C s       :     2.753226  s :     2.753226
      pz      :     1.088463  p :     3.131428
      px      :     0.959737
      py      :     1.083228
      dz2     :     0.039396  d :     0.181903
      dxz     :     0.074321
      dyz     :     0.020145
      dx2y2   :     0.030679
      dxy     :     0.017363
  6 N s       :     2.998102  s :     2.998102
      pz      :     1.219971  p :     3.530677
      px      :     1.230368
      py      :     1.080339
      dz2     :     0.080086  d :     0.268624
      dxz     :     0.092667
      dyz     :     0.045736
      dx2y2   :     0.025819
      dxy     :     0.024315
  7 O s       :     3.574393  s :     3.574393
      pz      :     1.274504  p :     4.615620
      px      :     1.848154
      py      :     1.492962
      dz2     :     0.020527  d :     0.031609
      dxz     :     0.004765
      dyz     :     0.006149
      dx2y2   :     0.000109
      dxy     :     0.000059
  8 O s       :     3.548854  s :     3.548854
      pz      :     1.679773  p :     4.611960
      px      :     1.481890
      py      :     1.450297
      dz2     :     0.003628  d :     0.035225
      dxz     :     0.015063
      dyz     :     0.002790
      dx2y2   :     0.008338
      dxy     :     0.005407
  9 F s       :     3.713800  s :     3.713800
      pz      :     1.540834  p :     5.368810
      px      :     1.937090
      py      :     1.890886
      dz2     :     0.004672  d :     0.007246
      dxz     :     0.001177
      dyz     :     0.001346
      dx2y2   :     0.000040
      dxy     :     0.000011
 10 H s       :     0.867902  s :     0.867902
      pz      :     0.016379  p :     0.073160
      px      :     0.044412
      py      :     0.012369
 11 H s       :     0.845253  s :     0.845253
      pz      :     0.047306  p :     0.072092
      px      :     0.011360
      py      :     0.013425
 12 H s       :     0.827856  s :     0.827856
      pz      :     0.021399  p :     0.073399
      px      :     0.040394
      py      :     0.011606
 13 C s       :     2.855544  s :     2.855544
      pz      :     1.141325  p :     3.386172
      px      :     1.124558
      py      :     1.120290
      dz2     :     0.031180  d :     0.106700
      dxz     :     0.019848
      dyz     :     0.016809
      dx2y2   :     0.030430
      dxy     :     0.008432
 14 H s       :     0.923015  s :     0.923015
      pz      :     0.014478  p :     0.071890
      px      :     0.013946
      py      :     0.043465
 15 H s       :     0.924347  s :     0.924347
      pz      :     0.035816  p :     0.071786
      px      :     0.018141
      py      :     0.017829
 16 H s       :     0.923886  s :     0.923886
      pz      :     0.014329  p :     0.071830
      px      :     0.041883
      py      :     0.015618
 17 S s       :     5.577467  s :     5.577467
      pz      :     3.418435  p :    10.952833
      px      :     3.720756
      py      :     3.813642
      dz2     :     0.009417  d :     0.037385
      dxz     :     0.013918
      dyz     :     0.008323
      dx2y2   :     0.002345
      dxy     :     0.003382


                      *****************************
                      * MAYER POPULATION ANALYSIS *
                      *****************************

  NA   - Mulliken gross atomic population
  ZA   - Total nuclear charge
  QA   - Mulliken gross atomic charge
  VA   - Mayer's total valence
  BVA  - Mayer's bonded valence
  FA   - Mayer's free valence

  ATOM       NA         ZA         QA         VA         BVA        FA
  0 C      5.9675     6.0000     0.0325     4.1888     4.1888    -0.0000
  1 N      7.1665     7.0000    -0.1665     2.7264     2.7264    -0.0000
  2 C      6.2636     6.0000    -0.2636     4.0149     4.0149    -0.0000
  3 C      6.3324     6.0000    -0.3324     4.5549     4.5549    -0.0000
  4 C      5.4462     6.0000     0.5538     3.8856     3.8856    -0.0000
  5 C      6.2400     6.0000    -0.2400     3.4005     3.4005    -0.0000
  6 N      7.0054     7.0000    -0.0054     4.0114     4.0114    -0.0000
  7 O      8.1667     8.0000    -0.1667     2.1061     2.1061    -0.0000
  8 O      8.1192     8.0000    -0.1192     2.1914     2.1914    -0.0000
  9 F      9.1228     9.0000    -0.1228     0.9266     0.9266    -0.0000
 10 H      0.7810     1.0000     0.2190     0.9516     0.9516    -0.0000
 11 H      0.7235     1.0000     0.2765     0.9164     0.9164    -0.0000
 12 H      0.6756     1.0000     0.3244     0.8318     0.8318     0.0000
 13 C      6.4861     6.0000    -0.4861     3.6332     3.6332     0.0000
 14 H      0.8669     1.0000     0.1331     0.9416     0.9416    -0.0000
 15 H      0.8658     1.0000     0.1342     0.9274     0.9274     0.0000
 16 H      0.8662     1.0000     0.1338     0.9337     0.9337     0.0000
 17 S     16.9045    16.0000    -0.9045     0.6495     0.6495    -0.0000

  Mayer bond orders larger than 0.100000
B(  0-C ,  1-N ) :   1.2682 B(  0-C ,  2-C ) :   0.1657 B(  0-C ,  3-C ) :   0.1609 
B(  0-C ,  4-C ) :   0.2287 B(  0-C ,  5-C ) :   1.2543 B(  0-C ,  6-N ) :  -0.1802 
B(  0-C ,  7-O ) :   0.1013 B(  0-C ,  8-O ) :  -0.1120 B(  0-C ,  9-F ) :   1.3357 
B(  1-N ,  2-C ) :   1.2187 B(  1-N ,  5-C ) :   0.1957 B(  2-C ,  3-C ) :   1.6379 
B(  2-C ,  5-C ) :   0.1343 B(  2-C , 10-H ) :   0.9108 B(  3-C ,  4-C ) :   1.4236 
B(  3-C ,  5-C ) :   0.1869 B(  3-C ,  8-O ) :   0.1670 B(  3-C , 11-H ) :   0.8148 
B(  4-C ,  5-C ) :   1.4676 B(  4-C ,  8-O ) :   0.2468 B(  4-C ,  9-F ) :  -0.1325 
B(  4-C , 12-H ) :   0.7190 B(  5-C ,  6-N ) :   0.6648 B(  5-C ,  7-O ) :  -0.1165 
B(  5-C ,  8-O ) :  -0.2143 B(  5-C ,  9-F ) :  -0.3277 B(  5-C , 12-H ) :   0.1386 
B(  6-N ,  7-O ) :   1.8192 B(  6-N ,  8-O ) :   1.8429 B(  7-O ,  8-O ) :   0.2447 
B( 10-H , 17-S ) :   0.1119 B( 13-C , 14-H ) :   0.9860 B( 13-C , 15-H ) :   0.9805 
B( 13-C , 16-H ) :   0.9876 B( 13-C , 17-S ) :   0.6913 

-------
TIMINGS
-------

Total SCF time: 0 days 0 hours 0 min 13 sec 

Total time                  ....      13.587 sec
Sum of individual times     ....      12.940 sec  ( 95.2%)

Fock matrix formation       ....      10.947 sec  ( 80.6%)
  Split-RI-J                ....       0.703 sec  (  6.4% of F)
  Chain of spheres X        ....       8.649 sec  ( 79.0% of F)
  XC integration            ....       0.734 sec  (  6.7% of F)
    Basis function eval.    ....       0.132 sec  ( 18.0% of XC)
    Density eval.           ....       0.106 sec  ( 14.5% of XC)
    XC-Functional eval.     ....       0.036 sec  (  5.0% of XC)
    XC-Potential eval.      ....       0.094 sec  ( 12.8% of XC)
Diagonalization             ....       0.026 sec  (  0.2%)
Density matrix formation    ....       0.010 sec  (  0.1%)
Population analysis         ....       0.088 sec  (  0.6%)
Initial guess               ....       0.044 sec  (  0.3%)
Orbital Transformation      ....       0.000 sec  (  0.0%)
Orbital Orthonormalization  ....       0.033 sec  (  0.2%)
DIIS solution               ....       0.011 sec  (  0.1%)
SOSCF solution              ....       0.119 sec  (  0.9%)
Grid generation             ....       1.695 sec  ( 12.5%)

Maximum memory used throughout the entire SCF-calculation: 69.1 MB

-------------------------   --------------------
FINAL SINGLE POINT ENERGY      -990.268154576652
-------------------------   --------------------

                                *** OPTIMIZATION RUN DONE ***

                            ***************************************
                            *     ORCA property calculations      *
                            ***************************************

                                    ---------------------
                                    Active property flags
                                    ---------------------
   (+) Dipole Moment


------------------------------------------------------------------------------
                       ORCA ELECTRIC PROPERTIES CALCULATION
------------------------------------------------------------------------------

Dipole Moment Calculation                       ... on
Quadrupole Moment Calculation                   ... off
Polarizability Calculation                      ... off
GBWName                                         ... structure_opt.gbw
Electron density                                ... structure_opt.scfp
The origin for moment calculation is the CENTER OF MASS  = ( 0.445022, -1.038153  6.287460)

-------------
DIPOLE MOMENT
-------------
                                X             Y             Z
Electronic contribution:    -15.39094       9.28313     -19.05314
Nuclear contribution   :     11.20385      -6.17341      18.14117
                        -----------------------------------------
Total Dipole Moment    :     -4.18710       3.10972      -0.91196
                        -----------------------------------------
Magnitude (a.u.)       :      5.29470
Magnitude (Debye)      :     13.45805



--------------------
Rotational spectrum 
--------------------
 
Rotational constants in cm-1:     0.066562     0.008939     0.008119 
Rotational constants in MHz :  1995.481267   267.972941   243.403725 

 Dipole components along the rotational axes: 
x,y,z [a.u.] :     4.714726     2.027254    -1.302077 
x,y,z [Debye]:    11.983881     5.152870    -3.309617 

 

Timings for individual modules:

Sum of individual times         ...     1558.809 sec (=  25.980 min)
GTO integral calculation        ...       81.144 sec (=   1.352 min)   5.2 %
SCF iterations                  ...     1224.519 sec (=  20.409 min)  78.6 %
SCF Gradient evaluation         ...      250.343 sec (=   4.172 min)  16.1 %
Geometry relaxation             ...        2.802 sec (=   0.047 min)   0.2 %
                             ****ORCA TERMINATED NORMALLY****
TOTAL RUN TIME: 0 days 0 hours 27 minutes 30 seconds 775 msec
