
                                 *****************
                                 * O   R   C   A *
                                 *****************

                                            #,                                       
                                            ###                                      
                                            ####                                     
                                            #####                                    
                                            ######                                   
                                           ########,                                 
                                     ,,################,,,,,                         
                               ,,#################################,,                 
                          ,,##########################################,,             
                       ,#########################################, ''#####,          
                    ,#############################################,,   '####,        
                  ,##################################################,,,,####,       
                ,###########''''           ''''###############################       
              ,#####''   ,,,,##########,,,,          '''####'''          '####       
            ,##' ,,,,###########################,,,                        '##       
           ' ,,###''''                  '''############,,,                           
         ,,##''                                '''############,,,,        ,,,,,,###''
      ,#''                                            '''#######################'''  
     '                                                          ''''####''''         
             ,#######,   #######,   ,#######,      ##                                
            ,#'     '#,  ##    ##  ,#'     '#,    #''#        ######   ,####,        
            ##       ##  ##   ,#'  ##            #'  '#       #        #'  '#        
            ##       ##  #######   ##           ,######,      #####,   #    #        
            '#,     ,#'  ##    ##  '#,     ,#' ,#      #,         ##   #,  ,#        
             '#######'   ##     ##  '#######'  #'      '#     #####' # '####'        



                  #######################################################
                  #                        -***-                        #
                  #          Department of theory and spectroscopy      #
                  #    Directorship and core code : Frank Neese         #
                  #        Max Planck Institute fuer Kohlenforschung    #
                  #                Kaiser Wilhelm Platz 1               #
                  #                 D-45470 Muelheim/Ruhr               #
                  #                      Germany                        #
                  #                                                     #
                  #                  All rights reserved                #
                  #                        -***-                        #
                  #######################################################


                         Program Version 5.0.4 -  RELEASE  -


 With contributions from (in alphabetic order):
   Daniel Aravena         : Magnetic Suceptibility
   Michael Atanasov       : Ab Initio Ligand Field Theory (pilot matlab implementation)
   Alexander A. Auer      : GIAO ZORA, VPT2 properties, NMR spectrum
   Ute Becker             : Parallelization
   Giovanni Bistoni       : ED, misc. LED, open-shell LED, HFLD
   Martin Brehm           : Molecular dynamics
   Dmytro Bykov           : SCF Hessian
   Vijay G. Chilkuri      : MRCI spin determinant printing, contributions to CSF-ICE
   Dipayan Datta          : RHF DLPNO-CCSD density
   Achintya Kumar Dutta   : EOM-CC, STEOM-CC
   Dmitry Ganyushin       : Spin-Orbit,Spin-Spin,Magnetic field MRCI
   Miquel Garcia          : C-PCM and meta-GGA Hessian, CC/C-PCM, Gaussian charge scheme
   Yang Guo               : DLPNO-NEVPT2, F12-NEVPT2, CIM, IAO-localization
   Andreas Hansen         : Spin unrestricted coupled pair/coupled cluster methods
   Benjamin Helmich-Paris : MC-RPA, TRAH-SCF, COSX integrals
   Lee Huntington         : MR-EOM, pCC
   Robert Izsak           : Overlap fitted RIJCOSX, COSX-SCS-MP3, EOM
   Marcus Kettner         : VPT2
   Christian Kollmar      : KDIIS, OOCD, Brueckner-CCSD(T), CCSD density, CASPT2, CASPT2-K
   Simone Kossmann        : Meta GGA functionals, TD-DFT gradient, OOMP2, MP2 Hessian
   Martin Krupicka        : Initial AUTO-CI
   Lucas Lang             : DCDCAS
   Marvin Lechner         : AUTO-CI (C++ implementation), FIC-MRCC
   Dagmar Lenk            : GEPOL surface, SMD
   Dimitrios Liakos       : Extrapolation schemes; Compound Job, initial MDCI parallelization
   Dimitrios Manganas     : Further ROCIS development; embedding schemes
   Dimitrios Pantazis     : SARC Basis sets
   Anastasios Papadopoulos: AUTO-CI, single reference methods and gradients
   Taras Petrenko         : DFT Hessian,TD-DFT gradient, ASA, ECA, R-Raman, ABS, FL, XAS/XES, NRVS
   Peter Pinski           : DLPNO-MP2, DLPNO-MP2 Gradient
   Christoph Reimann      : Effective Core Potentials
   Marius Retegan         : Local ZFS, SOC
   Christoph Riplinger    : Optimizer, TS searches, QM/MM, DLPNO-CCSD(T), (RO)-DLPNO pert. Triples
   Tobias Risthaus        : Range-separated hybrids, TD-DFT gradient, RPA, STAB
   Michael Roemelt        : Original ROCIS implementation
   Masaaki Saitow         : Open-shell DLPNO-CCSD energy and density
   Barbara Sandhoefer     : DKH picture change effects
   Avijit Sen             : IP-ROCIS
   Kantharuban Sivalingam : CASSCF convergence, NEVPT2, FIC-MRCI
   Bernardo de Souza      : ESD, SOC TD-DFT
   Georgi Stoychev        : AutoAux, RI-MP2 NMR, DLPNO-MP2 response
   Willem Van den Heuvel  : Paramagnetic NMR
   Boris Wezisla          : Elementary symmetry handling
   Frank Wennmohs         : Technical directorship


 We gratefully acknowledge several colleagues who have allowed us to
 interface, adapt or use parts of their codes:
   Stefan Grimme, W. Hujo, H. Kruse, P. Pracht,  : VdW corrections, initial TS optimization,
                  C. Bannwarth, S. Ehlert          DFT functionals, gCP, sTDA/sTD-DF
   Ed Valeev, F. Pavosevic, A. Kumar             : LibInt (2-el integral package), F12 methods
   Garnet Chan, S. Sharma, J. Yang, R. Olivares  : DMRG
   Ulf Ekstrom                                   : XCFun DFT Library
   Mihaly Kallay                                 : mrcc  (arbitrary order and MRCC methods)
   Jiri Pittner, Ondrej Demel                    : Mk-CCSD
   Frank Weinhold                                : gennbo (NPA and NBO analysis)
   Christopher J. Cramer and Donald G. Truhlar   : smd solvation model
   Lars Goerigk                                  : TD-DFT with DH, B97 family of functionals
   V. Asgeirsson, H. Jonsson                     : NEB implementation
   FAccTs GmbH                                   : IRC, NEB, NEB-TS, DLPNO-Multilevel, CI-OPT
                                                   MM, QMMM, 2- and 3-layer-ONIOM, Crystal-QMMM,
                                                   LR-CPCM, SF, NACMEs, symmetry and pop. for TD-DFT,
                                                   nearIR, NL-DFT gradient (VV10), updates on ESD,
                                                   ML-optimized integration grids
   S Lehtola, MJT Oliveira, MAL Marques          : LibXC Library
   Liviu Ungur et al                             : ANISO software


 Your calculation uses the libint2 library for the computation of 2-el integrals
 For citations please refer to: http://libint.valeyev.net

 Your ORCA version has been built with support for libXC version: 5.1.0
 For citations please refer to: https://tddft.org/programs/libxc/

 This ORCA versions uses:
   CBLAS   interface :  Fast vector & matrix operations
   LAPACKE interface :  Fast linear algebra routines
   SCALAPACK package :  Parallel linear algebra routines
   Shared memory     :  Shared parallel matrices
   BLAS/LAPACK       :  OpenBLAS 0.3.15  USE64BITINT DYNAMIC_ARCH NO_AFFINITY SkylakeX SINGLE_THREADED
        Core in use  :  SkylakeX
   Copyright (c) 2011-2014, The OpenBLAS Project




***************************************
The coordinates will be read from file: reactants.xyz
***************************************


Your calculation utilizes the SMD solvation module
Please cite in your paper:
A.V. Marenich, C.J. Cramer, D.G. Truhlar J. Phys. Chem. B, 113, (2009), 6378 

XCFun DFT library Copyright 2009-2010 Ulf Ekstrom and contributors.
See http://admol.org/xcfun for more information.
This is free software; see the source code for copying conditions.
There is ABSOLUTELY NO WARRANTY; not even for MERCHANTABILITY or FITNESS FOR A PARTICULAR PURPOSE.
For details see the documentation.
Scientific users of this library should cite U. Ekstrom, L. Visscher, R. Bast, A. J. Thorvaldsen and K. Ruud;
J.Chem.Theor.Comp. 2010, DOI: 10.1021/ct100117s
XCFun Version 0.99 

================================================================================

----- Orbital basis set information -----
Your calculation utilizes the basis: 6-311++G**
   H, Li - Ne  : R. Krishnan, J. S. Binkley, R. Seeger and J. A. Pople, J. Chem. Phys. 72, 650 (1980).
   Na - Ar     : A. D. McLean and G. S. Chandler J. Chem. Phys. 72, 5639, (1980).
   K  - Ca     : J.-P. Blaudeau, M. P. McGrath, L. A. Curtiss and L. Radom, J. Chem. Phys. 107, 5016 (1997).
   Ga - Kr     : L. A. Curtiss, M. P. McGrath, J.-P. Blandeau, N. E. Davis, R. C. Binning and L. Radom, J. Chem. Phys. 103, 6104 (1995).
   Pol./Diff.
   H, Li - Cl  : T. Clark, J. Chandrasekhar and P. v. R. Schleyer, J. Comp. Chem. 4, 294 (1983).
   H - Ne      : M. J. Frisch, J. A. Pople and J. S. Binkley, J. Chem. Phys. 80, 3265 (1984).

----- AuxJ basis set information -----
Your calculation utilizes the auxiliary basis: def2/J
   F. Weigend, Phys. Chem. Chem. Phys. 8, 1057 (2006).

================================================================================
                                        WARNINGS
                       Please study these warnings very carefully!
================================================================================


WARNING: Geometry Optimization
  ===> : Switching off AutoStart
         For restart on a previous wavefunction, please use MOREAD

INFO   : the flag for use of the SHARK integral package has been found!

================================================================================
                                       INPUT FILE
================================================================================
NAME = structure_opt.inp
|  1> !wb97x 6-311++G** OPT CPCM(WATER)
|  2> %maxcore  3500
|  3> %pal
|  4> nprocs 24
|  5> end
|  6> %cpcm
|  7> smd true
|  8> SMDsolvent "water"
|  9> end
| 10> %geom
| 11> ConstrainFragments {1} end
| 12> ConstrainFragments {4} end
| 13> ConnectFragments
| 14> { 1 2 C 5 7 }
| 15> { 1 2 C 0 9 }
| 16> { 2 3 C 13 5 }
| 17> { 3 4 C 13 17 }
| 18> end
| 19> end
| 20> * XYZfile -1 1 reactants.xyz
| 21> %geom
| 22> Fragments
| 23> 1 {0:5} end
| 24> 2 {6:12} end
| 25> 3 {13:16} end
| 26> 4 {17} end
| 27> end
| 28> end
| 29> 
| 30>                          ****END OF INPUT****
================================================================================

                       *****************************
                       * Geometry Optimization Run *
                       *****************************

Geometry optimization settings:
Update method            Update   .... BFGS
Choice of coordinates    CoordSys .... Z-matrix Internals
Initial Hessian          InHess   .... Almoef's Model

Convergence Tolerances:
Energy Change            TolE     ....  5.0000e-06 Eh
Max. Gradient            TolMAXG  ....  3.0000e-04 Eh/bohr
RMS Gradient             TolRMSG  ....  1.0000e-04 Eh/bohr
Max. Displacement        TolMAXD  ....  4.0000e-03 bohr
RMS Displacement         TolRMSD  ....  2.0000e-03 bohr
Strict Convergence                ....  False
------------------------------------------------------------------------------
                        ORCA OPTIMIZATION COORDINATE SETUP
------------------------------------------------------------------------------

The optimization will be done in new redundant internal coordinates
Making redundant internal coordinates   ...  (new redundants) done
Evaluating the initial hessian          ...  (Almloef) done
Evaluating the coordinates              ...  done
Calculating the B-matrix                .... done
Calculating the G-matrix                .... done
Diagonalizing the G-matrix              .... done
Imposing constraints:
 Iter   0:  RMS(Cart)=    0.0000000000 RMS(Int)=    0.0000000000
CONVERGED
Small eigenvalue found = 3.091e-03
Small eigenvalue found = 1.157e-02
Small eigenvalue found = 1.572e-02
The first mode is                       ....   56
The number of degrees of freedom        ....   48
Storing new coordinates                 .... done

    -----------------------------------------------------------------
                    Redundant Internal Coordinates


    -----------------------------------------------------------------
         Definition                    Initial Value    Approx d2E/dq
    -----------------------------------------------------------------
      1. B(N   1,C   0)                  1.3611         0.622347   
      2. B(C   2,N   1)                  1.3582         0.628875   
      3. B(C   3,C   2)                  1.3949         0.613658   
      4. B(C   4,C   3)                  1.3934         0.616971   
      5. B(C   5,C   0)                  1.4122         0.575774   
      6. B(C   5,C   4)                  1.4061         0.588917   
      7. B(O   7,C   5)                  2.3435         0.016853 C 
      8. B(O   7,N   6)                  1.2480         0.844503   
      9. B(O   8,N   6)                  1.3769         0.525866   
     10. B(F   9,C   0)                  1.3500         0.602260 C 
     11. B(F   9,N   6)                  2.8678         0.002044   
     12. B(F   9,O   7)                  2.5821         0.005837   
     13. B(H  11,H  10)                  2.4818         0.000415   
     14. B(H  12,O   8)                  2.5152         0.001717   
     15. B(H  12,H  11)                  2.4663         0.000439   
     16. B(H  12,N   6)                  2.7029         0.000861   
     17. B(C  13,H  10)                  5.2875         0.000000 C 
     18. B(H  14,C  13)                  1.0935         0.355502   
     19. B(H  15,C  13)                  1.0929         0.356347   
     20. B(H  16,C  13)                  1.0931         0.355985   
     21. B(S  17,C  13)                  1.8029         0.369616 C 
     22. A(C   5,C   0,F   9)          121.1725         0.421471 C 
     23. A(N   1,C   0,C   5)          120.1571         0.425830   
     24. A(N   1,C   0,F   9)          118.6704         0.424592 C 
     25. A(C   0,N   1,C   2)          121.9524         0.429796   
     26. A(N   1,C   2,C   3)          120.0262         0.431531   
     27. A(C   2,C   3,C   4)          119.3498         0.432882   
     28. A(C   3,C   4,C   5)          120.4718         0.429694   
     29. A(C   4,C   5,O   7)          147.4261         0.238582 C 
     30. A(C   0,C   5,O   7)           94.5313         0.237820 C 
     31. A(C   0,C   5,C   4)          118.0425         0.424407   
     32. A(O   8,N   6,H  12)           67.2752         0.152046   
     33. A(O   7,N   6,H  12)          174.2234         0.159181   
     34. A(O   7,N   6,O   8)          118.5014         0.433822   
     35. A(F   9,N   6,H  12)          110.0144         0.106848   
     36. A(O   7,N   6,F   9)           64.2090         0.186619   
     37. A(N   6,O   7,F   9)           89.9947         0.212791   
     38. A(C   5,O   7,N   6)           31.7456         0.248611 C 
     39. A(C   5,O   7,F   9)           58.2491         0.140475 C 
     40. A(N   6,O   8,H  12)           82.3972         0.162696   
     41. A(N   6,F   9,O   7)           25.7962         0.120482   
     42. A(C   0,F   9,O   7)           86.0471         0.203997 C 
     43. A(C   0,F   9,N   6)           60.2509         0.179684 C 
     44. A(H  11,H  10,C  13)          124.2986         0.090064 C 
     45. A(H  10,H  11,H  12)          119.7063         0.095112   
     46. A(N   6,H  12,O   8)           30.3275         0.103999   
     47. A(N   6,H  12,H  11)          126.7169         0.097913   
     48. A(O   8,H  12,H  11)          157.0445         0.099419   
     49. A(H  14,C  13,H  15)          108.9784         0.289776   
     50. A(H  14,C  13,H  16)          108.9547         0.289730   
     51. A(H  15,C  13,H  16)          109.0406         0.289838   
     52. A(H  10,C  13,H  14)          130.0489         0.095138 C 
     53. A(H  10,C  13,H  15)           83.0860         0.095141 C 
     54. A(H  10,C  13,H  16)          112.1642         0.095140 C 
     55. A(H  14,C  13,S  17)          109.9455         0.339503 C 
     56. A(H  15,C  13,S  17)          110.0035         0.339637 C 
     57. A(H  16,C  13,S  17)          109.8920         0.339580 C 
     58. A(H  10,C  13,S  17)           28.4831         0.096662   
     59. D(C   2,N   1,C   0,C   5)     -0.1041         0.028432   
     60. D(C   2,N   1,C   0,F   9)    179.9112         0.028432 C 
     61. D(C   3,C   2,N   1,C   0)      0.1066         0.025783   
     62. D(C   4,C   3,C   2,N   1)     -0.0956         0.020965   
     63. D(C   5,C   4,C   3,C   2)      0.0854         0.021202   
     64. D(C   4,C   5,C   0,N   1)      0.0896         0.022761   
     65. D(O   7,C   5,C   0,N   1)    179.9933         0.022761 C 
     66. D(O   7,C   5,C   4,C   3)   -179.9036         0.021656 C 
     67. D(C   0,C   5,C   4,C   3)     -0.0818         0.021656   
     68. D(C   4,C   5,C   0,F   9)   -179.9260         0.022761 C 
     69. D(O   7,C   5,C   0,F   9)     -0.0223         0.022761 C 
     70. D(F   9,O   7,C   5,C   0)      0.0117         0.001517 C 
     71. D(N   6,O   7,C   5,C   0)   -179.9521         0.001517 C 
     72. D(N   6,O   7,C   5,C   4)     -0.1099         0.001517 C 
     73. D(F   9,O   7,C   5,C   4)    179.8539         0.001517 C 
     74. D(F   9,O   7,N   6,O   8)    179.9932         0.079747   
     75. D(F   9,O   7,N   6,H  12)      0.1568         0.079747   
     76. D(C   5,O   7,N   6,O   8)   -179.9761         0.079747 C 
     77. D(C   5,O   7,N   6,H  12)      0.1876         0.079747 C 
     78. D(C   5,O   7,N   6,F   9)      0.0308         0.079747 C 
     79. D(H  12,O   8,N   6,O   7)   -179.9821         0.025649   
     80. D(C   0,F   9,O   7,C   5)     -0.0123         0.001503 C 
     81. D(N   6,F   9,C   0,C   5)      0.0236         0.032536 C 
     82. D(O   7,F   9,C   0,N   1)   -179.9952         0.032536 C 
     83. D(O   7,F   9,C   0,C   5)      0.0202         0.032536 C 
     84. D(O   7,F   9,N   6,H  12)   -179.9832         0.001500   
     85. D(C   0,F   9,N   6,O   7)   -179.9922         0.001500 C 
     86. D(C   0,F   9,N   6,H  12)      0.0246         0.001500 C 
     87. D(N   6,F   9,O   7,C   5)     -0.0190         0.001503 C 
     88. D(N   6,F   9,C   0,N   1)   -179.9918         0.032536 C 
     89. D(C   0,F   9,O   7,N   6)      0.0068         0.001503 C 
     90. D(O   7,F   9,O   8,H  12)   -179.9897         0.001500   
     91. D(C   0,F   9,O   8,H  12)      0.0232         0.001500 C 
     92. D(H  12,H  11,H  10,C  13)   -133.1865         0.001501 C 
     93. D(O   8,H  12,N   6,O   7)    179.8441         0.001501   
     94. D(O   8,H  12,N   6,F   9)    179.9943         0.001501   
     95. D(H  11,H  12,N   6,O   7)     -0.1748         0.001501   
     96. D(H  11,H  12,N   6,O   8)    179.9811         0.001501   
     97. D(H  11,H  12,N   6,F   9)     -0.0245         0.001501   
     98. D(H  11,H  12,O   8,N   6)     -0.0388         0.001502   
     99. D(N   6,H  12,H  11,H  10)      0.0466         0.001502   
    100. D(O   8,H  12,H  11,H  10)      0.0710         0.001502   
    101. D(H  14,C  13,H  10,H  11)     70.7504         0.001500 C 
    102. D(H  15,C  13,H  10,H  11)    -38.2772         0.001500 C 
    103. D(H  16,C  13,H  10,H  11)   -146.0626         0.001500 C 
    104. D(S  17,C  13,H  10,H  11)    122.8151         0.001500   
    -----------------------------------------------------------------

Number of atoms                         .... 18
Number of degrees of freedom            .... 104

         *************************************************************
         *                GEOMETRY OPTIMIZATION CYCLE   1            *
         *************************************************************
---------------------------------
CARTESIAN COORDINATES (ANGSTROEM)
---------------------------------
  C      0.000000    0.000000    1.820000
  N      1.178000   -0.196000    2.473000
  C      1.255000   -0.207000    3.829000
  C      0.105000   -0.016000    4.595000
  C     -1.116000    0.187000    3.955000
  C     -1.192000    0.198000    2.551000
  N     -2.456000    0.409000    1.893000
  O     -2.541000    0.423000    0.648000
  O     -3.602000    0.600000    2.632000
  F      0.000000    0.000000    0.470000
  H      2.209000   -0.366000    4.313000
  H      0.163000   -0.026000    5.676000
  H     -2.005000    0.335000    4.557000
  C      5.762000   -4.186000    5.174000
  H      5.685000   -5.266000    5.021000
  H      5.555000   -3.960000    6.223000
  H      6.779000   -3.865000    4.934000
  S      4.582000   -3.329000    4.114000

----------------------------
CARTESIAN COORDINATES (A.U.)
----------------------------
  NO LB      ZA    FRAG     MASS         X           Y           Z
   0 C     6.0000    1    12.011    0.000000    0.000000    3.439302
   1 N     7.0000    1    14.007    2.226097   -0.370386    4.673293
   2 C     6.0000    1    12.011    2.371606   -0.391173    7.235761
   3 C     6.0000    1    12.011    0.198421   -0.030236    8.683292
   4 C     6.0000    1    12.011   -2.108934    0.353379    7.473867
   5 C     6.0000    1    12.011   -2.252554    0.374166    4.820691
   6 N     7.0000    2    14.007   -4.641167    0.772898    3.577252
   7 O     8.0000    2    15.999   -4.801794    0.799354    1.224543
   8 O     8.0000    2    15.999   -6.806794    1.133836    4.973759
   9 F     9.0000    2    18.998    0.000000    0.000000    0.888171
  10 H     1.0000    2     1.008    4.174405   -0.691640    8.150389
  11 H     1.0000    2     1.008    0.308025   -0.049133   10.726086
  12 H     1.0000    2     1.008   -3.788901    0.633058    8.611482
  13 C     6.0000    3    12.011   10.888602   -7.910394    9.777443
  14 H     1.0000    3     1.008   10.743093   -9.951298    9.488315
  15 H     1.0000    3     1.008   10.497429   -7.483315   11.759766
  16 H     1.0000    3     1.008   12.810453   -7.303792    9.323909
  17 S    16.0000    4    32.060    8.658725   -6.290898    7.774333

----------------------------------------------
CARTESIAN COORDINATES OF FRAGMENTS (ANGSTROEM)
----------------------------------------------

 FRAGMENT 1 
  C     0.000000    0.000000    1.820000
  N     1.178000   -0.196000    2.473000
  C     1.255000   -0.207000    3.829000
  C     0.105000   -0.016000    4.595000
  C    -1.116000    0.187000    3.955000
  C    -1.192000    0.198000    2.551000

 FRAGMENT 2 
  N    -2.456000    0.409000    1.893000
  O    -2.541000    0.423000    0.648000
  O    -3.602000    0.600000    2.632000
  F     0.000000    0.000000    0.470000
  H     2.209000   -0.366000    4.313000
  H     0.163000   -0.026000    5.676000
  H    -2.005000    0.335000    4.557000

 FRAGMENT 3 
  C     5.762000   -4.186000    5.174000
  H     5.685000   -5.266000    5.021000
  H     5.555000   -3.960000    6.223000
  H     6.779000   -3.865000    4.934000

 FRAGMENT 4 
  S     4.582000   -3.329000    4.114000

--------------------------------
INTERNAL COORDINATES (ANGSTROEM)
--------------------------------
 C      0   0   0     0.000000000000     0.00000000     0.00000000
 N      1   0   0     1.361069065110     0.00000000     0.00000000
 C      2   1   0     1.358228993948   121.95243626     0.00000000
 C      3   2   1     1.394896770374   120.02620694     0.10655554
 C      4   3   2     1.393431017309   119.34983770   359.90435571
 C      5   4   3     1.406098502951   120.47178172     0.08537773
 N      6   5   4     1.440548853736   120.30882193   180.03842131
 O      7   6   5     1.247976762604   121.13704526   179.93147861
 O      7   6   5     1.376923382037   120.36156660   359.90709941
 F      1   2   3     1.350000000000   118.67037638   179.91115691
 H      3   2   1     1.081504969938   119.86701156   179.98746005
 H      4   3   2     1.082601034546   120.19197482   179.89186186
 H      5   4   3     1.083803026384   118.91636700   180.02085854
 C     11   3   2     5.287488061452   140.51848939   288.81708695
 H     14  11   3     1.093498056697   130.04890757   348.03824657
 H     14  11   3     1.092852231548    83.08603579   239.01064406
 H     14  11   3     1.093128537730   112.16421763   131.22530928
 S     14  11   3     1.802900163625    28.48310742    40.10294907

---------------------------
INTERNAL COORDINATES (A.U.)
---------------------------
 C      0   0   0     0.000000000000     0.00000000     0.00000000
 N      1   0   0     2.572047782411     0.00000000     0.00000000
 C      2   1   0     2.566680825712   121.95243626     0.00000000
 C      3   2   1     2.635972881098   120.02620694     0.10655554
 C      4   3   2     2.633203009226   119.34983770   359.90435571
 C      5   4   3     2.657141087893   120.47178172     0.08537773
 N      6   5   4     2.722242816095   120.30882193   180.03842131
 O      7   6   5     2.358334302820   121.13704526   179.93147861
 O      7   6   5     2.602008099442   120.36156660   359.90709941
 F      1   2   3     2.551130280794   118.67037638   179.91115691
 H      3   2   1     2.043748205657   119.86701156   179.98746005
 H      4   3   2     2.045819467592   120.19197482   179.89186186
 H      5   4   3     2.048090902982   118.91636700   180.02085854
 C     11   3   2     9.991904372523   140.51848939   288.81708695
 H     14  11   3     2.066411855132   130.04890757   348.03824657
 H     14  11   3     2.065191422471    83.08603579   239.01064406
 H     14  11   3     2.065713565484   112.16421763   131.22530928
 S     14  11   3     3.406987556054    28.48310742    40.10294907

---------------------
BASIS SET INFORMATION
---------------------
There are 6 groups of distinct atoms

 Group   1 Type C   : 12s6p1d contracted to 5s4p1d pattern {63111/3111/1}
 Group   2 Type N   : 12s6p1d contracted to 5s4p1d pattern {63111/3111/1}
 Group   3 Type O   : 12s6p1d contracted to 5s4p1d pattern {63111/3111/1}
 Group   4 Type F   : 12s6p1d contracted to 5s4p1d pattern {63111/3111/1}
 Group   5 Type H   : 6s1p contracted to 4s1p pattern {3111/1}
 Group   6 Type S   : 14s10p1d contracted to 7s6p1d pattern {6311111/421111/1}

Atom   0C    basis set group =>   1
Atom   1N    basis set group =>   2
Atom   2C    basis set group =>   1
Atom   3C    basis set group =>   1
Atom   4C    basis set group =>   1
Atom   5C    basis set group =>   1
Atom   6N    basis set group =>   2
Atom   7O    basis set group =>   3
Atom   8O    basis set group =>   3
Atom   9F    basis set group =>   4
Atom  10H    basis set group =>   5
Atom  11H    basis set group =>   5
Atom  12H    basis set group =>   5
Atom  13C    basis set group =>   1
Atom  14H    basis set group =>   5
Atom  15H    basis set group =>   5
Atom  16H    basis set group =>   5
Atom  17S    basis set group =>   6
---------------------------------
AUXILIARY/J BASIS SET INFORMATION
---------------------------------
There are 6 groups of distinct atoms

 Group   1 Type C   : 12s5p4d2f1g contracted to 6s4p3d1f1g pattern {711111/2111/211/2/1}
 Group   2 Type N   : 12s5p4d2f1g contracted to 6s4p3d1f1g pattern {711111/2111/211/2/1}
 Group   3 Type O   : 12s5p4d2f1g contracted to 6s4p3d1f1g pattern {711111/2111/211/2/1}
 Group   4 Type F   : 12s5p4d2f1g contracted to 6s4p3d1f1g pattern {711111/2111/211/2/1}
 Group   5 Type H   : 5s2p1d contracted to 3s1p1d pattern {311/2/1}
 Group   6 Type S   : 14s5p5d2f1g contracted to 8s4p3d1f1g pattern {71111111/2111/311/2/1}

Atom   0C    basis set group =>   1
Atom   1N    basis set group =>   2
Atom   2C    basis set group =>   1
Atom   3C    basis set group =>   1
Atom   4C    basis set group =>   1
Atom   5C    basis set group =>   1
Atom   6N    basis set group =>   2
Atom   7O    basis set group =>   3
Atom   8O    basis set group =>   3
Atom   9F    basis set group =>   4
Atom  10H    basis set group =>   5
Atom  11H    basis set group =>   5
Atom  12H    basis set group =>   5
Atom  13C    basis set group =>   1
Atom  14H    basis set group =>   5
Atom  15H    basis set group =>   5
Atom  16H    basis set group =>   5
Atom  17S    basis set group =>   6


           ************************************************************
           *        Program running with 24 parallel MPI-processes    *
           *              working on a common directory               *
           ************************************************************
------------------------------------------------------------------------------
                           ORCA GTO INTEGRAL CALCULATION
                           -- RI-GTO INTEGRALS CHOSEN --
------------------------------------------------------------------------------
------------------------------------------------------------------------------
                   ___                                                        
                  /   \      - P O W E R E D   B Y -                         
                 /     \                                                     
                 |  |  |   _    _      __       _____    __    __             
                 |  |  |  | |  | |    /  \     |  _  \  |  |  /  |          
                  \  \/   | |  | |   /    \    | | | |  |  | /  /          
                 / \  \   | |__| |  /  /\  \   | |_| |  |  |/  /          
                |  |  |   |  __  | /  /__\  \  |    /   |      \           
                |  |  |   | |  | | |   __   |  |    \   |  |\   \          
                \     /   | |  | | |  |  |  |  | |\  \  |  | \   \       
                 \___/    |_|  |_| |__|  |__|  |_| \__\ |__|  \__/        
                                                                              
                      - O R C A' S   B I G   F R I E N D -                    
                                      &                                       
                       - I N T E G R A L  F E E D E R -                       
                                                                              
 v1 FN, 2020, v2 2021                                                         
------------------------------------------------------------------------------


Reading SHARK input file structure_opt.SHARKINP.tmp ... ok
----------------------
SHARK INTEGRAL PACKAGE
----------------------

Number of atoms                             ...     18
Number of basis functions                   ...    314
Number of shells                            ...    154
Maximum angular momentum                    ...      2
Integral batch strategy                     ... SHARK/LIBINT Hybrid
RI-J (if used) integral strategy            ... SPLIT-RIJ (Revised 2003 algorithm where possible)
Printlevel                                  ...      1
Contraction scheme used                     ... SEGMENTED contraction
Coulomb Range Separation                    ... NOT USED
Exchange Range Separation                   ... Long Range
   Mu parameter                             ...  0.300000
   Scaling (regular/separated)              ...  0.157706  0.842294
Finite Nucleus Model                        ... NOT USED
Auxiliary Coulomb fitting basis             ... AVAILABLE
   # of basis functions in Aux-J            ...    656
   # of shells in Aux-J                     ...    212
   Maximum angular momentum in Aux-J        ...      4
Auxiliary J/K fitting basis                 ... NOT available
Auxiliary Correlation fitting basis         ... NOT available
Auxiliary 'external' fitting basis          ... NOT available
Integral threshold                          ...     2.500000e-11
Primitive cut-off                           ...     2.500000e-12
Primitive pair pre-selection threshold      ...     2.500000e-12

Calculating pre-screening integrals         ... done (  0.0 sec) Dimension = 154
Organizing shell pair data                  ... done (  0.1 sec)
Shell pair information
Total number of shell pairs                 ...     11935
Shell pairs after pre-screening             ...      9080
Total number of primitive shell pairs       ...     38500
Primitive shell pairs kept                  ...     20760
          la=0 lb=0:   2798 shell pairs
          la=1 lb=0:   3728 shell pairs
          la=1 lb=1:   1281 shell pairs
          la=2 lb=0:    723 shell pairs
          la=2 lb=1:    496 shell pairs
          la=2 lb=2:     54 shell pairs

Calculating one electron integrals          ... done (  0.0 sec)
Calculating RI/J V-Matrix + Cholesky decomp.... done (  0.1 sec)
Calculating Nuclear repulsion               ... done (  0.0 sec) ENN=    685.519623012012 Eh

SHARK setup successfully completed in   1.2 seconds

Maximum memory used throughout the entire GTOINT-calculation: 17.7 MB


           ************************************************************
           *        Program running with 24 parallel MPI-processes    *
           *              working on a common directory               *
           ************************************************************
-------------------------------------------------------------------------------
                                 ORCA SCF
-------------------------------------------------------------------------------

------------
SCF SETTINGS
------------
Hamiltonian:
 Density Functional     Method          .... DFT(GTOs)
 Exchange Functional    Exchange        .... WB97X
 Correlation Functional Correlation     .... WB97X
 Gradients option       PostSCFGGA      .... off
 Hybrid DFT is turned on
   Fraction HF Exchange ScalHFX         ....  0.157706
   Scaling of DF-GGA-X  ScalDFX         ....  0.000000
   Scaling of DF-GGA-C  ScalDFC         ....  1.000000
   Scaling of DF-LDA-C  ScalLDAC        ....  1.000000
   Perturbative correction              ....  0.000000
   Density functional embedding theory  .... OFF
 Long-range corrected/Screened/Range-Separated Hybrid DFT is turned on
   Amount of maximum screened exact exchange              ....  0.842294
   Range separation parameter mu (erf(mu*r12)/r12)        ....  0.300000
 RI-approximation to the Coulomb term is turned on
   Number of AuxJ basis functions       .... 656
   RIJ-COSX (HFX calculated with COS-X)).... on


General Settings:
 Integral files         IntName         .... structure_opt
 Hartree-Fock type      HFTyp           .... RHF
 Total Charge           Charge          ....   -1
 Multiplicity           Mult            ....    1
 Number of Electrons    NEL             ....   98
 Basis Dimension        Dim             ....  314
 Nuclear Repulsion      ENuc            ....    685.5196230120 Eh

Convergence Acceleration:
 DIIS                   CNVDIIS         .... on
   Start iteration      DIISMaxIt       ....    12
   Startup error        DIISStart       ....  0.200000
   # of expansion vecs  DIISMaxEq       ....     5
   Bias factor          DIISBfac        ....   1.050
   Max. coefficient     DIISMaxC        ....  10.000
 Trust-Rad. Augm. Hess. CNVTRAH         .... auto
   Auto Start mean grad. ratio tolernc. ....  1.125000
   Auto Start start iteration           ....    20
   Auto Start num. interpolation iter.  ....    10
   Max. Number of Micro iterations      ....    16
   Max. Number of Macro iterations      .... Maxiter - #DIIS iter
   Number of Davidson start vectors     ....     2
   Converg. threshold I  (grad. norm)   ....   1.000e-05
   Converg. threshold II (energy diff.) ....   1.000e-08
   Grad. Scal. Fac. for Micro threshold ....   0.100
   Minimum threshold for Micro iter.    ....   0.010
   NR start threshold (gradient norm)   ....   0.001
   Initial trust radius                 ....   0.400
   Minimum AH scaling param. (alpha)    ....   1.000
   Maximum AH scaling param. (alpha)    .... 1000.000
   Orbital update algorithm             .... Taylor
   White noise on init. David. guess    .... on
   Maximum white noise                  ....   0.010
   Quad. conv. algorithm                .... NR
 SOSCF                  CNVSOSCF        .... on
   Start iteration      SOSCFMaxIt      ....   150
   Startup grad/error   SOSCFStart      ....  0.003300
 Level Shifting         CNVShift        .... on
   Level shift para.    LevelShift      ....    0.2500
   Turn off err/grad.   ShiftErr        ....    0.0010
 Zerner damping         CNVZerner       .... off
 Static damping         CNVDamp         .... on
   Fraction old density DampFac         ....    0.7000
   Max. Damping (<1)    DampMax         ....    0.9800
   Min. Damping (>=0)   DampMin         ....    0.0000
   Turn off err/grad.   DampErr         ....    0.1000
 Fernandez-Rico         CNVRico         .... off

SCF Procedure:
 Maximum # iterations   MaxIter         ....   125
 SCF integral mode      SCFMode         .... Direct
   Integral package                     .... SHARK and LIBINT hybrid scheme
 Reset frequency        DirectResetFreq ....    20
 Integral Threshold     Thresh          ....  2.500e-11 Eh
 Primitive CutOff       TCut            ....  2.500e-12 Eh

Convergence Tolerance:
 Convergence Check Mode ConvCheckMode   .... Total+1el-Energy
 Convergence forced     ConvForced      .... 0
 Energy Change          TolE            ....  1.000e-08 Eh
 1-El. energy change                    ....  1.000e-05 Eh
 Orbital Gradient       TolG            ....  1.000e-05
 Orbital Rotation angle TolX            ....  1.000e-05
 DIIS Error             TolErr          ....  5.000e-07


Diagonalization of the overlap matrix:
Smallest eigenvalue                        ... 4.323e-06
Time for diagonalization                   ...    0.044 sec
Threshold for overlap eigenvalues          ... 1.000e-08
Number of eigenvalues below threshold      ... 0
Time for construction of square roots      ...    0.027 sec
Total time needed                          ...    0.073 sec

Time for model grid setup =    1.015 sec

------------------------------
INITIAL GUESS: MODEL POTENTIAL
------------------------------
Loading Hartree-Fock densities                     ... done
Calculating cut-offs                               ... done
Initializing the effective Hamiltonian             ... done
Setting up the integral package (SHARK)            ... done
Starting the Coulomb interaction                   ... done (   0.1 sec)
Reading the grid                                   ... done
Mapping shells                                     ... done
Starting the XC term evaluation                    ... done (   0.0 sec)
  promolecular density results
     # of electrons  =     96.996598698
     EX              =    -96.553125381
     EC              =     -3.327474400
     EX+EC           =    -99.880599781
Transforming the Hamiltonian                       ... done (   0.0 sec)
Diagonalizing the Hamiltonian                      ... done (   0.0 sec)
Back transforming the eigenvectors                 ... done (   0.0 sec)
Now organizing SCF variables                       ... done
                      ------------------
                      INITIAL GUESS DONE (   1.2 sec)
                      ------------------
-------------------
DFT GRID GENERATION
-------------------

General Integration Accuracy     IntAcc      ... 4.388
Radial Grid Type                 RadialGrid  ... OptM3 with GC (2021)
Angular Grid (max. ang.)         AngularGrid ... 4 (Lebedev-302)
Angular grid pruning method      GridPruning ... 4 (adaptive)
Weight generation scheme         WeightScheme... Becke
Basis function cutoff            BFCut       ... 1.0000e-11
Integration weight cutoff        WCut        ... 1.0000e-14
Angular grids for H and He will be reduced by one unit
Partially contracted basis set               ... off
Rotationally invariant grid construction     ... off

Total number of grid points                  ...    98094
Total number of batches                      ...     1542
Average number of points per batch           ...       63
Average number of grid points per atom       ...     5450
Time for grid setup =    0.710 sec

--------------------
COSX GRID GENERATION
--------------------

GRIDX 1
-------
General Integration Accuracy     IntAcc      ... 3.816
Radial Grid Type                 RadialGrid  ... OptM3 with GC (2021)
Angular Grid (max. ang.)         AngularGrid ... 1 (Lebedev-50)
Angular grid pruning method      GridPruning ... 4 (adaptive)
Weight generation scheme         WeightScheme... Becke
Basis function cutoff            BFCut       ... 1.0000e-11
Integration weight cutoff        WCut        ... 1.0000e-14
Angular grids for H and He will be reduced by one unit
Partially contracted basis set               ... on
Rotationally invariant grid construction     ... off

Total number of grid points                  ...    12240
Total number of batches                      ...      201
Average number of points per batch           ...       60
Average number of grid points per atom       ...      680
UseSFitting                                  ... on

GRIDX 2
-------
General Integration Accuracy     IntAcc      ... 4.020
Radial Grid Type                 RadialGrid  ... OptM3 with GC (2021)
Angular Grid (max. ang.)         AngularGrid ... 2 (Lebedev-110)
Angular grid pruning method      GridPruning ... 4 (adaptive)
Weight generation scheme         WeightScheme... Becke
Basis function cutoff            BFCut       ... 1.0000e-11
Integration weight cutoff        WCut        ... 1.0000e-14
Angular grids for H and He will be reduced by one unit
Partially contracted basis set               ... on
Rotationally invariant grid construction     ... off

Total number of grid points                  ...    31047
Total number of batches                      ...      492
Average number of points per batch           ...       63
Average number of grid points per atom       ...     1725
UseSFitting                                  ... on

GRIDX 3
-------
General Integration Accuracy     IntAcc      ... 4.338
Radial Grid Type                 RadialGrid  ... OptM3 with GC (2021)
Angular Grid (max. ang.)         AngularGrid ... 3 (Lebedev-194)
Angular grid pruning method      GridPruning ... 4 (adaptive)
Weight generation scheme         WeightScheme... Becke
Basis function cutoff            BFCut       ... 1.0000e-11
Integration weight cutoff        WCut        ... 1.0000e-14
Angular grids for H and He will be reduced by one unit
Partially contracted basis set               ... on
Rotationally invariant grid construction     ... off

Total number of grid points                  ...    69005
Total number of batches                      ...     1086
Average number of points per batch           ...       63
Average number of grid points per atom       ...     3834
UseSFitting                                  ... on

Time for X-Grid setup             =    0.870 sec


--------------------
CPCM SOLVATION MODEL
--------------------
CPCM parameters:
  Epsilon                                         ...      78.3550
  Refrac                                          ...       1.3328
  Rsolv                                           ...       1.3000
  Surface type                                    ... GAUSSIAN VDW
  Epsilon function type                           ...         CPCM
Solvent:                                     ... WATER
SMD-CDS solvent descriptors:
  Soln                                       ...    1.3328
  Soln25                                     ...    1.3323
  Sola                                       ...    0.0000
  Solb                                       ...    0.0000
  Solg                                       ...    0.0000
  Solc                                       ...    0.0000
  Solh                                       ...    0.0000
Radii:
 Radius for C  used is    3.4960 Bohr (=   1.8500 Ang.)
 Radius for N  used is    3.5716 Bohr (=   1.8900 Ang.)
 Radius for O  used is    2.8724 Bohr (=   1.5200 Ang.)
 Radius for F  used is    3.2692 Bohr (=   1.7300 Ang.)
 Radius for H  used is    2.2677 Bohr (=   1.2000 Ang.)
 Radius for S  used is    4.7054 Bohr (=   2.4900 Ang.)
Calculating surface                               ...        done! (  0.0s)
GEPOL surface points                              ...         1152
GEPOL Volume                                      ...    1369.2493
GEPOL Surface-area                                ...     849.3694
Calculating surface distance matrix               ...        done! (  0.0s)
Performing Cholesky decomposition & store         ...        done! (  0.1s)
Overall time for CPCM initialization              ...                 0.1s
--------------
SCF ITERATIONS
--------------
ITER       Energy         Delta-E        Max-DP      RMS-DP      [F,P]     Damp
               ***  Starting incremental Fock matrix formation  ***
  0   -989.8668710500   0.000000000000 0.35977131  0.00334816  0.2373487 0.7000
  1   -990.0290881501  -0.162217100163 0.26281611  0.00263093  0.1095944 0.7000
                               ***Turning on DIIS***
  2   -990.1015179030  -0.072429752906 1.57123309  0.00953911  0.0531981 0.0000
  3   -990.2255299107  -0.124012007680 0.74105471  0.00412553  0.0550106 0.0000
  4   -990.2446921688  -0.019162258056 0.28832339  0.00165367  0.0125528 0.0000
  5   -990.2458654427  -0.001173273897 0.14412244  0.00088429  0.0061555 0.0000
                      *** Initiating the SOSCF procedure ***
                           *** Shutting down DIIS ***
                      *** Re-Reading the Fockian *** 
                      *** Removing any level shift *** 
ITER      Energy       Delta-E        Grad      Rot      Max-DP    RMS-DP
  6   -990.24609518  -0.0002297340  0.001486  0.001486  0.041853  0.000307
               *** Restarting incremental Fock matrix formation ***
  7   -990.24620985  -0.0001146760  0.000972  0.002427  0.012235  0.000182
  8   -990.24624809  -0.0000382419  0.000389  0.002934  0.009452  0.000167
  9   -990.24625421  -0.0000061117  0.000670  0.000737  0.008384  0.000097
 10   -990.24626078  -0.0000065785  0.000110  0.000225  0.004128  0.000032
 11   -990.24626085  -0.0000000606  0.000092  0.000126  0.003442  0.000019
 12   -990.24626121  -0.0000003600  0.000015  0.000040  0.007245  0.000037
 13   -990.24626121  -0.0000000020  0.000006  0.000033  0.009563  0.000060
 14   -990.24626121  -0.0000000026  0.000005  0.000011  0.006684  0.000035
                  ***Gradient check signals convergence***
              ***Rediagonalizing the Fockian in SOSCF/NRSCF***

               *****************************************************
               *                     SUCCESS                       *
               *           SCF CONVERGED AFTER  15 CYCLES          *
               *****************************************************

Old exchange energy                            =    -28.432397957 Eh
New exchange energy                            =    -28.432384743 Eh
Exchange energy change after final integration =      0.000013214 Eh
Total energy after final integration           =   -990.246248004 Eh
Final COS-X integration done in                =     3.511 sec

SMD CDS free energy correction energy :                 5.87301     Kcal/mol
Total Energy after SMD CDS correction =              -990.236888763 Eh

----------------
TOTAL SCF ENERGY
----------------

Total Energy       :         -990.23688876 Eh          -26945.71564 eV

Components:
Nuclear Repulsion  :          685.51962301 Eh           18653.93729 eV
Electronic Energy  :        -1675.75651177 Eh          -45599.65293 eV
One Electron Energy:        -2730.56900745 Eh          -74302.56016 eV
Two Electron Energy:         1054.81249568 Eh           28702.90724 eV
Max COSX asymmetry :            0.00000259 Eh               0.00007 eV
CPCM Dielectric    :           -0.11767349 Eh              -3.20206 eV
SMD CDS (Gcds)     :            0.00935924 Eh               0.25468 eV

Virial components:
Potential Energy   :        -1977.46823334 Eh          -53809.64626 eV
Kinetic Energy     :          987.23134457 Eh           26863.93062 eV
Virial Ratio       :            2.00304442


DFT components:
N(Alpha)           :       48.999990129744 electrons
N(Beta)            :       48.999990129744 electrons
N(Total)           :       97.999980259488 electrons
E(XC)              :      -73.338732236797 Eh       
DFET-embed. en.    :        0.000000000000 Eh       
CPCM Solvation Model Properties:
Surface-charge          :            0.94580777
Charge-correction       :           -0.00584070 Eh              -0.15893 eV
Free-energy (cav+disp)  :            0.00935924 Eh               0.25468 eV

---------------
SCF CONVERGENCE
---------------

  Last Energy change         ...   -8.4582e-09  Tolerance :   1.0000e-08
  Last MAX-Density change    ...    2.6645e-15  Tolerance :   1.0000e-07
  Last RMS-Density change    ...    3.5678e-17  Tolerance :   5.0000e-09
  Last Orbital Gradient      ...    1.9871e-06  Tolerance :   1.0000e-05
  Last Orbital Rotation      ...    1.6136e-06  Tolerance :   1.0000e-05

             **** THE GBW FILE WAS UPDATED (structure_opt.gbw) ****
             **** DENSITY structure_opt.scfp WAS UPDATED ****
             **** ENERGY FILE WAS UPDATED (structure_opt.en.tmp) ****
             **** THE GBW FILE WAS UPDATED (structure_opt.gbw) ****
             **** DENSITY structure_opt.scfp WAS UPDATED ****
----------------
ORBITAL ENERGIES
----------------

  NO   OCC          E(Eh)            E(eV) 
   0   2.0000     -88.720823     -2414.2163 
   1   2.0000     -24.793297      -674.6599 
   2   2.0000     -19.275717      -524.5189 
   3   2.0000     -19.244037      -523.6569 
   4   2.0000     -14.669943      -399.1894 
   5   2.0000     -14.435468      -392.8091 
   6   2.0000     -10.437629      -284.0223 
   7   2.0000     -10.364100      -282.0215 
   8   2.0000     -10.337974      -281.3106 
   9   2.0000     -10.321083      -280.8509 
  10   2.0000     -10.290325      -280.0140 
  11   2.0000     -10.236113      -278.5388 
  12   2.0000      -7.916652      -215.4231 
  13   2.0000      -5.879853      -159.9989 
  14   2.0000      -5.872419      -159.7966 
  15   2.0000      -5.872361      -159.7951 
  16   2.0000      -1.396329       -37.9961 
  17   2.0000      -1.348350       -36.6905 
  18   2.0000      -1.151615       -31.3370 
  19   2.0000      -1.109132       -30.1810 
  20   2.0000      -1.008390       -27.4397 
  21   2.0000      -0.943270       -25.6677 
  22   2.0000      -0.873927       -23.7808 
  23   2.0000      -0.836617       -22.7655 
  24   2.0000      -0.796560       -21.6755 
  25   2.0000      -0.769123       -20.9289 
  26   2.0000      -0.705985       -19.2108 
  27   2.0000      -0.686562       -18.6823 
  28   2.0000      -0.669343       -18.2138 
  29   2.0000      -0.665556       -18.1107 
  30   2.0000      -0.661826       -18.0092 
  31   2.0000      -0.633284       -17.2325 
  32   2.0000      -0.620348       -16.8805 
  33   2.0000      -0.615098       -16.7377 
  34   2.0000      -0.563742       -15.3402 
  35   2.0000      -0.536976       -14.6118 
  36   2.0000      -0.527823       -14.3628 
  37   2.0000      -0.527798       -14.3621 
  38   2.0000      -0.494755       -13.4630 
  39   2.0000      -0.494496       -13.4559 
  40   2.0000      -0.456209       -12.4141 
  41   2.0000      -0.432616       -11.7721 
  42   2.0000      -0.421778       -11.4772 
  43   2.0000      -0.416413       -11.3312 
  44   2.0000      -0.407873       -11.0988 
  45   2.0000      -0.391184       -10.6447 
  46   2.0000      -0.384739       -10.4693 
  47   2.0000      -0.259357        -7.0575 
  48   2.0000      -0.259350        -7.0573 
  49   0.0000      -0.064877        -1.7654 
  50   0.0000       0.022689         0.6174 
  51   0.0000       0.051544         1.4026 
  52   0.0000       0.055348         1.5061 
  53   0.0000       0.061650         1.6776 
  54   0.0000       0.073022         1.9870 
  55   0.0000       0.076114         2.0712 
  56   0.0000       0.087900         2.3919 
  57   0.0000       0.093892         2.5549 
  58   0.0000       0.101357         2.7581 
  59   0.0000       0.102706         2.7948 
  60   0.0000       0.112701         3.0668 
  61   0.0000       0.126474         3.4415 
  62   0.0000       0.130822         3.5599 
  63   0.0000       0.135784         3.6949 
  64   0.0000       0.140155         3.8138 
  65   0.0000       0.145855         3.9689 
  66   0.0000       0.154302         4.1988 
  67   0.0000       0.163629         4.4526 
  68   0.0000       0.165192         4.4951 
  69   0.0000       0.166818         4.5393 
  70   0.0000       0.169756         4.6193 
  71   0.0000       0.175579         4.7777 
  72   0.0000       0.181185         4.9303 
  73   0.0000       0.185285         5.0419 
  74   0.0000       0.188495         5.1292 
  75   0.0000       0.191928         5.2226 
  76   0.0000       0.196570         5.3489 
  77   0.0000       0.198308         5.3962 
  78   0.0000       0.201777         5.4906 
  79   0.0000       0.213621         5.8129 
  80   0.0000       0.217330         5.9138 
  81   0.0000       0.224060         6.0970 
  82   0.0000       0.225606         6.1390 
  83   0.0000       0.233498         6.3538 
  84   0.0000       0.237918         6.4741 
  85   0.0000       0.247281         6.7289 
  86   0.0000       0.249237         6.7821 
  87   0.0000       0.259899         7.0722 
  88   0.0000       0.268996         7.3197 
  89   0.0000       0.269406         7.3309 
  90   0.0000       0.276156         7.5146 
  91   0.0000       0.279795         7.6136 
  92   0.0000       0.282723         7.6933 
  93   0.0000       0.283562         7.7161 
  94   0.0000       0.284953         7.7540 
  95   0.0000       0.298477         8.1220 
  96   0.0000       0.312037         8.4910 
  97   0.0000       0.312973         8.5164 
  98   0.0000       0.319804         8.7023 
  99   0.0000       0.325352         8.8533 
 100   0.0000       0.328966         8.9516 
 101   0.0000       0.340897         9.2763 
 102   0.0000       0.349507         9.5106 
 103   0.0000       0.352378         9.5887 
 104   0.0000       0.366225         9.9655 
 105   0.0000       0.370338        10.0774 
 106   0.0000       0.373484        10.1630 
 107   0.0000       0.384367        10.4592 
 108   0.0000       0.396946        10.8015 
 109   0.0000       0.403595        10.9824 
 110   0.0000       0.408057        11.1038 
 111   0.0000       0.417776        11.3683 
 112   0.0000       0.421125        11.4594 
 113   0.0000       0.427274        11.6267 
 114   0.0000       0.445284        12.1168 
 115   0.0000       0.453856        12.3501 
 116   0.0000       0.458629        12.4799 
 117   0.0000       0.471565        12.8319 
 118   0.0000       0.476739        12.9727 
 119   0.0000       0.487452        13.2643 
 120   0.0000       0.493384        13.4257 
 121   0.0000       0.502881        13.6841 
 122   0.0000       0.524930        14.2841 
 123   0.0000       0.531110        14.4522 
 124   0.0000       0.533889        14.5279 
 125   0.0000       0.551224        14.9996 
 126   0.0000       0.582434        15.8488 
 127   0.0000       0.613820        16.7029 
 128   0.0000       0.617280        16.7970 
 129   0.0000       0.620193        16.8763 
 130   0.0000       0.637879        17.3576 
 131   0.0000       0.647839        17.6286 
 132   0.0000       0.658805        17.9270 
 133   0.0000       0.661276        17.9942 
 134   0.0000       0.684520        18.6267 
 135   0.0000       0.701914        19.1000 
 136   0.0000       0.711403        19.3583 
 137   0.0000       0.726027        19.7562 
 138   0.0000       0.753454        20.5025 
 139   0.0000       0.770810        20.9748 
 140   0.0000       0.773957        21.0604 
 141   0.0000       0.777878        21.1671 
 142   0.0000       0.811638        22.0858 
 143   0.0000       0.831359        22.6224 
 144   0.0000       0.838504        22.8169 
 145   0.0000       0.853305        23.2196 
 146   0.0000       0.862893        23.4805 
 147   0.0000       0.874226        23.7889 
 148   0.0000       0.905389        24.6369 
 149   0.0000       0.912490        24.8301 
 150   0.0000       0.920271        25.0418 
 151   0.0000       0.934898        25.4399 
 152   0.0000       0.956189        26.0192 
 153   0.0000       0.962329        26.1863 
 154   0.0000       0.967655        26.3312 
 155   0.0000       0.972868        26.4731 
 156   0.0000       0.980794        26.6888 
 157   0.0000       0.996342        27.1118 
 158   0.0000       1.002399        27.2767 
 159   0.0000       1.005261        27.3545 
 160   0.0000       1.009734        27.4763 
 161   0.0000       1.036669        28.2092 
 162   0.0000       1.044220        28.4147 
 163   0.0000       1.067813        29.0567 
 164   0.0000       1.078074        29.3359 
 165   0.0000       1.080583        29.4042 
 166   0.0000       1.083846        29.4930 
 167   0.0000       1.140788        31.0424 
 168   0.0000       1.144925        31.1550 
 169   0.0000       1.152313        31.3560 
 170   0.0000       1.171130        31.8681 
 171   0.0000       1.197583        32.5879 
 172   0.0000       1.205466        32.8024 
 173   0.0000       1.215441        33.0738 
 174   0.0000       1.249753        34.0075 
 175   0.0000       1.261365        34.3235 
 176   0.0000       1.277064        34.7507 
 177   0.0000       1.279606        34.8199 
 178   0.0000       1.282091        34.8875 
 179   0.0000       1.293363        35.1942 
 180   0.0000       1.299418        35.3590 
 181   0.0000       1.357161        36.9302 
 182   0.0000       1.396056        37.9886 
 183   0.0000       1.405715        38.2514 
 184   0.0000       1.472833        40.0778 
 185   0.0000       1.513840        41.1937 
 186   0.0000       1.544464        42.0270 
 187   0.0000       1.587785        43.2058 
 188   0.0000       1.589721        43.2585 
 189   0.0000       1.590634        43.2833 
 190   0.0000       1.618136        44.0317 
 191   0.0000       1.633268        44.4435 
 192   0.0000       1.655918        45.0598 
 193   0.0000       1.657488        45.1025 
 194   0.0000       1.694214        46.1019 
 195   0.0000       1.697307        46.1861 
 196   0.0000       1.706613        46.4393 
 197   0.0000       1.716969        46.7211 
 198   0.0000       1.749895        47.6171 
 199   0.0000       1.761259        47.9263 
 200   0.0000       1.787612        48.6434 
 201   0.0000       1.811596        49.2960 
 202   0.0000       1.811962        49.3060 
 203   0.0000       1.814328        49.3704 
 204   0.0000       1.843781        50.1718 
 205   0.0000       1.860012        50.6135 
 206   0.0000       1.870719        50.9048 
 207   0.0000       1.910499        51.9873 
 208   0.0000       1.934911        52.6516 
 209   0.0000       1.948419        53.0192 
 210   0.0000       1.973207        53.6937 
 211   0.0000       1.977532        53.8114 
 212   0.0000       1.991936        54.2033 
 213   0.0000       2.012697        54.7683 
 214   0.0000       2.033038        55.3218 
 215   0.0000       2.046627        55.6916 
 216   0.0000       2.060131        56.0590 
 217   0.0000       2.111488        57.4565 
 218   0.0000       2.142089        58.2892 
 219   0.0000       2.148262        58.4572 
 220   0.0000       2.171194        59.0812 
 221   0.0000       2.175384        59.1952 
 222   0.0000       2.178615        59.2831 
 223   0.0000       2.206870        60.0520 
 224   0.0000       2.293424        62.4072 
 225   0.0000       2.323942        63.2377 
 226   0.0000       2.334077        63.5135 
 227   0.0000       2.337557        63.6082 
 228   0.0000       2.401655        65.3523 
 229   0.0000       2.431367        66.1609 
 230   0.0000       2.494461        67.8777 
 231   0.0000       2.564883        69.7940 
 232   0.0000       2.594463        70.5989 
 233   0.0000       2.596397        70.6516 
 234   0.0000       2.607437        70.9520 
 235   0.0000       2.627356        71.4940 
 236   0.0000       2.661134        72.4131 
 237   0.0000       2.662968        72.4630 
 238   0.0000       2.674048        72.7645 
 239   0.0000       2.675591        72.8065 
 240   0.0000       2.696575        73.3775 
 241   0.0000       2.769354        75.3579 
 242   0.0000       2.787409        75.8493 
 243   0.0000       2.834585        77.1330 
 244   0.0000       2.840443        77.2924 
 245   0.0000       2.858856        77.7934 
 246   0.0000       2.868527        78.0566 
 247   0.0000       2.886176        78.5368 
 248   0.0000       2.896127        78.8076 
 249   0.0000       2.903642        79.0121 
 250   0.0000       2.934566        79.8536 
 251   0.0000       2.938258        79.9541 
 252   0.0000       2.960189        80.5508 
 253   0.0000       2.984673        81.2171 
 254   0.0000       2.987550        81.2954 
 255   0.0000       3.002108        81.6915 
 256   0.0000       3.018281        82.1316 
 257   0.0000       3.103073        84.4389 
 258   0.0000       3.154161        85.8291 
 259   0.0000       3.188853        86.7731 
 260   0.0000       3.269258        88.9610 
 261   0.0000       3.307859        90.0114 
 262   0.0000       3.308397        90.0261 
 263   0.0000       3.346859        91.0727 
 264   0.0000       3.370241        91.7089 
 265   0.0000       3.455253        94.0222 
 266   0.0000       3.497844        95.1812 
 267   0.0000       3.559478        96.8583 
 268   0.0000       3.595436        97.8368 
 269   0.0000       3.681133       100.1687 
 270   0.0000       3.703707       100.7830 
 271   0.0000       3.754523       102.1658 
 272   0.0000       3.853909       104.8702 
 273   0.0000       3.887420       105.7821 
 274   0.0000       3.889938       105.8506 
 275   0.0000       3.891886       105.9036 
 276   0.0000       3.903783       106.2273 
 277   0.0000       3.924558       106.7927 
 278   0.0000       4.018863       109.3588 
 279   0.0000       4.062031       110.5335 
 280   0.0000       4.121460       112.1506 
 281   0.0000       4.144505       112.7777 
 282   0.0000       4.169438       113.4562 
 283   0.0000       4.409297       119.9831 
 284   0.0000       4.480252       121.9138 
 285   0.0000       4.503884       122.5569 
 286   0.0000       4.761171       129.5580 
 287   0.0000       4.942905       134.5033 
 288   0.0000       5.071729       138.0088 
 289   0.0000       5.100053       138.7795 
 290   0.0000       5.190528       141.2414 
 291   0.0000       5.219200       142.0216 
 292   0.0000       5.315452       144.6408 
 293   0.0000       5.698740       155.0706 
 294   0.0000       6.130137       166.8095 
 295   0.0000       6.413602       174.5230 
 296   0.0000       6.541297       177.9977 
 297   0.0000       6.840654       186.1437 
 298   0.0000       7.989422       217.4032 
 299   0.0000      17.549868       477.5562 
 300   0.0000      17.554330       477.6776 
 301   0.0000      17.649391       480.2643 
 302   0.0000      23.651154       643.5806 
 303   0.0000      23.892236       650.1408 
 304   0.0000      23.985046       652.6663 
 305   0.0000      24.033132       653.9748 
 306   0.0000      24.071798       655.0269 
 307   0.0000      24.181598       658.0147 
 308   0.0000      35.375072       962.6046 
 309   0.0000      35.657519       970.2904 
 310   0.0000      49.899416      1357.8321 
 311   0.0000      49.963313      1359.5709 
 312   0.0000      66.793182      1817.5349 
 313   0.0000     188.981057      5142.4360 

--------------------
FRAGMENT INFORMATION
--------------------
Fragment  1:    0   1   2   3   4   5 
Fragment  2:    6   7   8   9  10  11  12 
Fragment  3:   13  14  15  16 
Fragment  4:   17 


                    ********************************
                    * MULLIKEN POPULATION ANALYSIS *
                    ********************************

-------------------------
MULLIKEN FRAGMENT CHARGES
-------------------------
 Fragment   0 :  -0.438771
 Fragment   1 :   0.436415
 Fragment   2 :  -0.047937
 Fragment   3 :  -0.949706
Sum of fragment charges:   -1.0000000

---------------------------------
MULLIKEN FRAGMENT OVERLAP CHARGES
---------------------------------
                  0          1          2          3    
      0      20.428140   0.541426  -0.002567  -0.003236
      1       0.541426  35.021018   0.006090  -0.004394
      2      -0.002567   0.006090  11.646889  -0.652563
      3      -0.003236  -0.004394  -0.652563  17.279803

-----------------------
MULLIKEN ATOMIC CHARGES
-----------------------
   0 C :   -0.046204
   1 N :   -0.180261
   2 C :   -0.308489
   3 C :   -0.250649
   4 C :    0.418616
   5 C :   -0.071784
   6 N :   -0.071389
   7 O :   -0.053045
   8 O :   -0.238754
   9 F :   -0.102798
  10 H :    0.291937
  11 H :    0.284086
  12 H :    0.326379
  13 C :   -0.437284
  14 H :    0.129595
  15 H :    0.131090
  16 H :    0.128662
  17 S :   -0.949706
Sum of atomic charges:   -1.0000000

--------------------------------
MULLIKEN REDUCED ORBITAL CHARGES
--------------------------------
  0 C s       :     3.293075  s :     3.293075
      pz      :     0.675515  p :     2.592681
      px      :     0.977816
      py      :     0.939350
      dz2     :     0.052758  d :     0.160448
      dxz     :     0.048831
      dyz     :     0.028429
      dx2y2   :     0.013770
      dxy     :     0.016660
  1 N s       :     3.615887  s :     3.615887
      pz      :     1.137335  p :     3.533848
      px      :     1.232134
      py      :     1.164379
      dz2     :     0.008167  d :     0.030526
      dxz     :     0.007246
      dyz     :     0.004750
      dx2y2   :     0.005504
      dxy     :     0.004860
  2 C s       :     3.386775  s :     3.386775
      pz      :     0.803198  p :     2.837528
      px      :     1.187834
      py      :     0.846496
      dz2     :     0.023587  d :     0.084186
      dxz     :     0.032223
      dyz     :     0.014791
      dx2y2   :     0.007222
      dxy     :     0.006363
  3 C s       :     3.191148  s :     3.191148
      pz      :     1.156233  p :     3.006338
      px      :     0.881513
      py      :     0.968592
      dz2     :     0.015296  d :     0.053163
      dxz     :     0.017414
      dyz     :     0.005094
      dx2y2   :     0.008218
      dxy     :     0.007141
  4 C s       :     2.521038  s :     2.521038
      pz      :     0.903430  p :     3.003245
      px      :     1.257922
      py      :     0.841892
      dz2     :     0.016551  d :     0.057101
      dxz     :     0.015855
      dyz     :     0.010573
      dx2y2   :     0.007217
      dxy     :     0.006906
  5 C s       :     3.305150  s :     3.305150
      pz      :     1.081426  p :     2.693493
      px      :     0.482560
      py      :     1.129507
      dz2     :     0.013626  d :     0.073141
      dxz     :     0.029770
      dyz     :     0.010349
      dx2y2   :     0.011214
      dxy     :     0.008182
  6 N s       :     3.590049  s :     3.590049
      pz      :     1.058488  p :     3.372340
      px      :     1.214519
      py      :     1.099333
      dz2     :     0.027720  d :     0.109000
      dxz     :     0.039359
      dyz     :     0.023079
      dx2y2   :     0.008550
      dxy     :     0.010293
  7 O s       :     3.778108  s :     3.778108
      pz      :     1.026477  p :     4.256243
      px      :     1.828337
      py      :     1.401430
      dz2     :     0.009710  d :     0.018695
      dxz     :     0.003512
      dyz     :     0.005304
      dx2y2   :     0.000102
      dxy     :     0.000067
  8 O s       :     3.824686  s :     3.824686
      pz      :     1.624704  p :     4.401954
      px      :     1.218211
      py      :     1.559039
      dz2     :     0.001059  d :     0.012113
      dxz     :     0.004900
      dyz     :     0.000879
      dx2y2   :     0.003117
      dxy     :     0.002158
  9 F s       :     3.918350  s :     3.918350
      pz      :     1.389158  p :     5.179117
      px      :     1.915635
      py      :     1.874324
      dz2     :     0.003096  d :     0.005331
      dxz     :     0.000998
      dyz     :     0.001201
      dx2y2   :     0.000027
      dxy     :     0.000009
 10 H s       :     0.684013  s :     0.684013
      pz      :     0.005464  p :     0.024051
      px      :     0.014258
      py      :     0.004329
 11 H s       :     0.690943  s :     0.690943
      pz      :     0.016381  p :     0.024971
      px      :     0.003654
      py      :     0.004936
 12 H s       :     0.648101  s :     0.648101
      pz      :     0.007742  p :     0.025520
      px      :     0.013375
      py      :     0.004403
 13 C s       :     3.297665  s :     3.297665
      pz      :     1.026631  p :     3.086966
      px      :     1.019531
      py      :     1.040804
      dz2     :     0.017250  d :     0.052653
      dxz     :     0.007062
      dyz     :     0.005191
      dx2y2   :     0.016732
      dxy     :     0.006417
 14 H s       :     0.847719  s :     0.847719
      pz      :     0.004812  p :     0.022687
      px      :     0.004700
      py      :     0.013175
 15 H s       :     0.846175  s :     0.846175
      pz      :     0.012761  p :     0.022735
      px      :     0.004948
      py      :     0.005026
 16 H s       :     0.848643  s :     0.848643
      pz      :     0.005057  p :     0.022695
      px      :     0.012236
      py      :     0.005402
 17 S s       :     5.998706  s :     5.998706
      pz      :     3.624123  p :    10.919606
      px      :     3.542495
      py      :     3.752987
      dz2     :     0.003318  d :     0.031394
      dxz     :     0.010613
      dyz     :     0.006230
      dx2y2   :     0.003693
      dxy     :     0.007542


                     *******************************
                     * LOEWDIN POPULATION ANALYSIS *
                     *******************************

------------------------
LOEWDIN FRAGMENT CHARGES
------------------------
 Fragment   0 :   0.045062
 Fragment   1 :  -0.067336
 Fragment   2 :  -0.351517
 Fragment   3 :  -0.626209

----------------------------
LOEWDIN FRAGMENT BOND ORDERS
----------------------------
                  0          1          2          3    
      0      56.971133   6.777999   0.004965   0.033656
      1       6.777999  43.796057   0.001905   0.017443
      2       0.004965   0.001905  15.409481   1.740274
      3       0.033656   0.017443   1.740274  16.626209

----------------------
LOEWDIN ATOMIC CHARGES
----------------------
   0 C :    0.111527
   1 N :   -0.110728
   2 C :    0.064121
   3 C :   -0.034137
   4 C :    0.078099
   5 C :   -0.063820
   6 N :    0.241488
   7 O :   -0.154516
   8 O :   -0.339165
   9 F :   -0.078143
  10 H :    0.078238
  11 H :    0.084644
  12 H :    0.100119
  13 C :   -0.356643
  14 H :    0.002038
  15 H :    0.001343
  16 H :    0.001745
  17 S :   -0.626209

-------------------------------
LOEWDIN REDUCED ORBITAL CHARGES
-------------------------------
  0 C s       :     2.743772  s :     2.743772
      pz      :     0.849374  p :     2.815569
      px      :     1.080454
      py      :     0.885741
      dz2     :     0.112539  d :     0.329131
      dxz     :     0.100704
      dyz     :     0.050378
      dx2y2   :     0.033878
      dxy     :     0.031633
  1 N s       :     3.150828  s :     3.150828
      pz      :     1.301245  p :     3.903049
      px      :     1.416574
      py      :     1.185231
      dz2     :     0.017389  d :     0.056850
      dxz     :     0.015728
      dyz     :     0.007779
      dx2y2   :     0.009554
      dxy     :     0.006400
  2 C s       :     2.787514  s :     2.787514
      pz      :     1.033938  p :     2.966563
      px      :     1.102807
      py      :     0.829818
      dz2     :     0.060315  d :     0.181802
      dxz     :     0.069013
      dyz     :     0.027959
      dx2y2   :     0.014017
      dxy     :     0.010498
  3 C s       :     2.781268  s :     2.781268
      pz      :     1.081445  p :     3.128527
      px      :     1.092474
      py      :     0.954607
      dz2     :     0.034117  d :     0.124343
      dxz     :     0.045070
      dyz     :     0.008015
      dx2y2   :     0.022219
      dxy     :     0.014921
  4 C s       :     2.779222  s :     2.779222
      pz      :     1.065768  p :     3.014374
      px      :     1.108325
      py      :     0.840281
      dz2     :     0.040919  d :     0.128306
      dxz     :     0.039158
      dyz     :     0.021257
      dx2y2   :     0.015049
      dxy     :     0.011922
  5 C s       :     2.757938  s :     2.757938
      pz      :     1.088444  p :     3.125541
      px      :     0.957166
      py      :     1.079930
      dz2     :     0.039901  d :     0.180341
      dxz     :     0.071785
      dyz     :     0.019854
      dx2y2   :     0.031423
      dxy     :     0.017378
  6 N s       :     3.052082  s :     3.052082
      pz      :     1.205959  p :     3.500065
      px      :     1.215117
      py      :     1.078989
      dz2     :     0.060436  d :     0.206365
      dxz     :     0.076182
      dyz     :     0.035701
      dx2y2   :     0.017513
      dxy     :     0.016534
  7 O s       :     3.581194  s :     3.581194
      pz      :     1.283763  p :     4.541014
      px      :     1.838873
      py      :     1.418377
      dz2     :     0.020434  d :     0.032309
      dxz     :     0.005157
      dyz     :     0.006528
      dx2y2   :     0.000119
      dxy     :     0.000071
  8 O s       :     3.667367  s :     3.667367
      pz      :     1.709922  p :     4.651318
      px      :     1.369898
      py      :     1.571498
      dz2     :     0.001545  d :     0.020480
      dxz     :     0.009263
      dyz     :     0.001173
      dx2y2   :     0.005710
      dxy     :     0.002789
  9 F s       :     3.714962  s :     3.714962
      pz      :     1.535266  p :     5.355812
      px      :     1.934298
      py      :     1.886248
      dz2     :     0.004765  d :     0.007369
      dxz     :     0.001184
      dyz     :     0.001375
      dx2y2   :     0.000037
      dxy     :     0.000009
 10 H s       :     0.851122  s :     0.851122
      pz      :     0.016686  p :     0.070640
      px      :     0.042472
      py      :     0.011482
 11 H s       :     0.842901  s :     0.842901
      pz      :     0.047856  p :     0.072455
      px      :     0.011200
      py      :     0.013399
 12 H s       :     0.826656  s :     0.826656
      pz      :     0.023100  p :     0.073225
      px      :     0.038702
      py      :     0.011423
 13 C s       :     2.857836  s :     2.857836
      pz      :     1.132043  p :     3.391887
      px      :     1.133889
      py      :     1.125955
      dz2     :     0.034244  d :     0.106920
      dxz     :     0.015336
      dyz     :     0.010611
      dx2y2   :     0.033334
      dxy     :     0.013394
 14 H s       :     0.926180  s :     0.926180
      pz      :     0.014395  p :     0.071782
      px      :     0.014146
      py      :     0.043240
 15 H s       :     0.926785  s :     0.926785
      pz      :     0.042021  p :     0.071872
      px      :     0.014922
      py      :     0.014929
 16 H s       :     0.926415  s :     0.926415
      pz      :     0.015167  p :     0.071840
      px      :     0.040535
      py      :     0.016138
 17 S s       :     5.606042  s :     5.606042
      pz      :     3.654463  p :    10.982965
      px      :     3.583304
      py      :     3.745197
      dz2     :     0.003729  d :     0.037202
      dxz     :     0.012772
      dyz     :     0.007434
      dx2y2   :     0.004214
      dxy     :     0.009053


                      *****************************
                      * MAYER POPULATION ANALYSIS *
                      *****************************

  NA   - Mulliken gross atomic population
  ZA   - Total nuclear charge
  QA   - Mulliken gross atomic charge
  VA   - Mayer's total valence
  BVA  - Mayer's bonded valence
  FA   - Mayer's free valence

  ATOM       NA         ZA         QA         VA         BVA        FA
  0 C      6.0462     6.0000    -0.0462     4.3452     4.3452    -0.0000
  1 N      7.1803     7.0000    -0.1803     2.6707     2.6707     0.0000
  2 C      6.3085     6.0000    -0.3085     4.0027     4.0027     0.0000
  3 C      6.2506     6.0000    -0.2506     4.3796     4.3796    -0.0000
  4 C      5.5814     6.0000     0.4186     4.1721     4.1721     0.0000
  5 C      6.0718     6.0000    -0.0718     3.3496     3.3496     0.0000
  6 N      7.0714     7.0000    -0.0714     3.9213     3.9213     0.0000
  7 O      8.0530     8.0000    -0.0530     2.1925     2.1925     0.0000
  8 O      8.2388     8.0000    -0.2388     1.9965     1.9965    -0.0000
  9 F      9.1028     9.0000    -0.1028     0.9640     0.9640    -0.0000
 10 H      0.7081     1.0000     0.2919     0.8780     0.8780     0.0000
 11 H      0.7159     1.0000     0.2841     0.9012     0.9012     0.0000
 12 H      0.6736     1.0000     0.3264     0.8334     0.8334     0.0000
 13 C      6.4373     6.0000    -0.4373     3.5869     3.5869     0.0000
 14 H      0.8704     1.0000     0.1296     0.9421     0.9421     0.0000
 15 H      0.8689     1.0000     0.1311     0.9311     0.9311     0.0000
 16 H      0.8713     1.0000     0.1287     0.9416     0.9416     0.0000
 17 S     16.9497    16.0000    -0.9497     0.6162     0.6162     0.0000

  Mayer bond orders larger than 0.100000
B(  0-C ,  1-N ) :   1.2910 B(  0-C ,  2-C ) :   0.1947 B(  0-C ,  3-C ) :   0.1256 
B(  0-C ,  4-C ) :   0.3077 B(  0-C ,  5-C ) :   1.2059 B(  0-C ,  6-N ) :  -0.1794 
B(  0-C ,  9-F ) :   1.4102 B(  1-N ,  2-C ) :   1.1665 B(  1-N ,  5-C ) :   0.1637 
B(  2-C ,  3-C ) :   1.6137 B(  2-C , 10-H ) :   0.8891 B(  3-C ,  4-C ) :   1.5025 
B(  3-C ,  8-O ) :   0.1379 B(  3-C , 11-H ) :   0.8393 B(  4-C ,  5-C ) :   1.5924 
B(  4-C ,  6-N ) :  -0.1457 B(  4-C ,  8-O ) :   0.1572 B(  4-C ,  9-F ) :  -0.1237 
B(  4-C , 12-H ) :   0.7520 B(  5-C ,  6-N ) :   0.7566 B(  5-C ,  8-O ) :  -0.1633 
B(  5-C ,  9-F ) :  -0.3663 B(  5-C , 12-H ) :   0.1216 B(  6-N ,  7-O ) :   1.8482 
B(  6-N ,  8-O ) :   1.6546 B(  7-O ,  8-O ) :   0.2594 B( 13-C , 14-H ) :   0.9826 
B( 13-C , 15-H ) :   0.9783 B( 13-C , 16-H ) :   0.9844 B( 13-C , 17-S ) :   0.6457 


-------
TIMINGS
-------

Total SCF time: 0 days 0 hours 0 min 41 sec 

Total time                  ....      41.212 sec
Sum of individual times     ....      39.880 sec  ( 96.8%)

Fock matrix formation       ....      36.369 sec  ( 88.2%)
  Split-RI-J                ....       2.618 sec  (  7.2% of F)
  Chain of spheres X        ....      22.795 sec  ( 62.7% of F)
  XC integration            ....       6.141 sec  ( 16.9% of F)
    Basis function eval.    ....       0.527 sec  (  8.6% of XC)
    Density eval.           ....       1.069 sec  ( 17.4% of XC)
    XC-Functional eval.     ....       0.262 sec  (  4.3% of XC)
[...]
 290   0.0000       5.205341       141.6445 
 291   0.0000       5.281571       143.7188 
 292   0.0000       5.371003       146.1524 
 293   0.0000       5.849129       159.1629 
 294   0.0000       6.339922       172.5180 
 295   0.0000       6.422940       174.7771 
 296   0.0000       6.552908       178.3137 
 297   0.0000       6.861852       186.7205 
 298   0.0000       7.989496       217.4052 
 299   0.0000      17.550200       477.5652 
 300   0.0000      17.554450       477.6809 
 301   0.0000      17.650186       480.2860 
 302   0.0000      23.702404       644.9752 
 303   0.0000      23.955887       651.8728 
 304   0.0000      24.020922       653.6425 
 305   0.0000      24.032241       653.9505 
 306   0.0000      24.134699       656.7386 
 307   0.0000      24.245978       659.7666 
 308   0.0000      35.451248       964.6775 
 309   0.0000      35.737303       972.4615 
 310   0.0000      49.923134      1358.4775 
 311   0.0000      50.030693      1361.4044 
 312   0.0000      66.807141      1817.9147 
 313   0.0000     188.981146      5142.4384 

--------------------
FRAGMENT INFORMATION
--------------------
Fragment  1:    0   1   2   3   4   5 
Fragment  2:    6   7   8   9  10  11  12 
Fragment  3:   13  14  15  16 
Fragment  4:   17 


                    ********************************
                    * MULLIKEN POPULATION ANALYSIS *
                    ********************************

-------------------------
MULLIKEN FRAGMENT CHARGES
-------------------------
 Fragment   0 :  -0.475932
 Fragment   1 :   0.473439
 Fragment   2 :  -0.048827
 Fragment   3 :  -0.948680
Sum of fragment charges:   -1.0000000

---------------------------------
MULLIKEN FRAGMENT OVERLAP CHARGES
---------------------------------
                  0          1          2          3    
      0      17.753422   0.435543  -0.002799  -0.004549
      1       0.435543  35.089876   0.006026  -0.003343
      2      -0.002799   0.006026  11.649014  -0.653122
      3      -0.004549  -0.003343  -0.653122  17.279187

-----------------------
MULLIKEN ATOMIC CHARGES
-----------------------
   0 C :   -0.012063
   1 N :   -0.172728
   2 C :   -0.278677
   3 C :   -0.342672
   4 C :    0.506922
   5 C :   -0.176714
   6 N :   -0.008315
   7 O :   -0.164021
   8 O :   -0.118228
   9 F :   -0.120153
  10 H :    0.279663
  11 H :    0.281139
  12 H :    0.323354
  13 C :   -0.438291
  14 H :    0.129737
  15 H :    0.131025
  16 H :    0.128702
  17 S :   -0.948680
Sum of atomic charges:   -1.0000000

--------------------------------
MULLIKEN REDUCED ORBITAL CHARGES
--------------------------------
  0 C s       :     3.251854  s :     3.251854
      pz      :     0.669275  p :     2.590298
      px      :     0.978560
      py      :     0.942463
      dz2     :     0.057570  d :     0.169911
      dxz     :     0.049935
      dyz     :     0.029434
      dx2y2   :     0.014659
      dxy     :     0.018314
  1 N s       :     3.596995  s :     3.596995
      pz      :     1.138771  p :     3.541217
      px      :     1.246108
      py      :     1.156338
      dz2     :     0.008555  d :     0.034516
      dxz     :     0.008860
      dyz     :     0.005304
      dx2y2   :     0.006031
      dxy     :     0.005766
  2 C s       :     3.308596  s :     3.308596
      pz      :     0.819031  p :     2.881079
      px      :     1.198163
      py      :     0.863885
      dz2     :     0.024950  d :     0.089003
      dxz     :     0.033759
      dyz     :     0.015836
      dx2y2   :     0.007933
      dxy     :     0.006525
  3 C s       :     3.255457  s :     3.255457
      pz      :     1.160252  p :     3.031562
      px      :     0.900066
      py      :     0.971243
      dz2     :     0.015942  d :     0.055654
      dxz     :     0.018312
      dyz     :     0.005684
      dx2y2   :     0.008184
      dxy     :     0.007532
  4 C s       :     2.398526  s :     2.398526
      pz      :     0.930750  p :     3.034874
      px      :     1.258340
      py      :     0.845785
      dz2     :     0.017431  d :     0.059678
      dxz     :     0.015840
      dyz     :     0.011413
      dx2y2   :     0.007779
      dxy     :     0.007216
  5 C s       :     3.364299  s :     3.364299
      pz      :     1.099112  p :     2.738872
      px      :     0.506381
      py      :     1.133379
      dz2     :     0.012985  d :     0.073543
      dxz     :     0.031151
      dyz     :     0.010310
      dx2y2   :     0.010986
      dxy     :     0.008111
  6 N s       :     3.488720  s :     3.488720
      pz      :     1.042318  p :     3.380710
      px      :     1.233172
      py      :     1.105220
      dz2     :     0.037718  d :     0.138884
      dxz     :     0.045309
      dyz     :     0.028843
      dx2y2   :     0.012186
      dxy     :     0.014827
  7 O s       :     3.803724  s :     3.803724
      pz      :     1.022242  p :     4.342133
      px      :     1.840348
      py      :     1.479544
      dz2     :     0.009782  d :     0.018164
      dxz     :     0.003236
      dyz     :     0.005001
      dx2y2   :     0.000089
      dxy     :     0.000056
  8 O s       :     3.784671  s :     3.784671
      pz      :     1.561422  p :     4.313419
      px      :     1.322710
      py      :     1.429287
      dz2     :     0.002376  d :     0.020138
      dxz     :     0.007296
      dyz     :     0.002032
      dx2y2   :     0.004304
      dxy     :     0.004130
  9 F s       :     3.917654  s :     3.917654
      pz      :     1.400420  p :     5.197271
      px      :     1.917785
      py      :     1.879066
      dz2     :     0.003038  d :     0.005228
      dxz     :     0.000975
      dyz     :     0.001174
      dx2y2   :     0.000030
      dxy     :     0.000011
 10 H s       :     0.696902  s :     0.696902
      pz      :     0.004645  p :     0.023436
      px      :     0.014479
      py      :     0.004311
 11 H s       :     0.693667  s :     0.693667
      pz      :     0.016434  p :     0.025195
      px      :     0.003774
      py      :     0.004987
 12 H s       :     0.650807  s :     0.650807
      pz      :     0.007226  p :     0.025839
      px      :     0.014109
      py      :     0.004504
 13 C s       :     3.298802  s :     3.298802
      pz      :     1.026920  p :     3.086839
      px      :     1.018403
      py      :     1.041515
      dz2     :     0.017113  d :     0.052651
      dxz     :     0.007190
      dyz     :     0.005183
      dx2y2   :     0.016807
      dxy     :     0.006358
 14 H s       :     0.847579  s :     0.847579
      pz      :     0.004769  p :     0.022683
      px      :     0.004705
      py      :     0.013208
 15 H s       :     0.846262  s :     0.846262
      pz      :     0.012755  p :     0.022713
      px      :     0.004876
      py      :     0.005082
 16 H s       :     0.848622  s :     0.848622
      pz      :     0.005148  p :     0.022676
      px      :     0.012173
      py      :     0.005355
 17 S s       :     5.997746  s :     5.997746
      pz      :     3.631219  p :    10.919538
      px      :     3.528103
      py      :     3.760217
      dz2     :     0.003279  d :     0.031396
      dxz     :     0.010727
      dyz     :     0.005985
      dx2y2   :     0.003830
      dxy     :     0.007575


                     *******************************
                     * LOEWDIN POPULATION ANALYSIS *
                     *******************************

------------------------
LOEWDIN FRAGMENT CHARGES
------------------------
 Fragment   0 :   0.018737
 Fragment   1 :  -0.040937
 Fragment   2 :  -0.351539
 Fragment   3 :  -0.626261

----------------------------
LOEWDIN FRAGMENT BOND ORDERS
----------------------------
                  0          1          2          3    
      0      57.210196   6.724331   0.005040   0.034057
      1       6.724331  44.217350   0.001897   0.017427
      2       0.005040   0.001897  15.409042   1.740468
      3       0.034057   0.017427   1.740468  16.626261

----------------------
LOEWDIN ATOMIC CHARGES
----------------------
   0 C :    0.082249
   1 N :   -0.081070
   2 C :    0.043381
   3 C :   -0.034481
   4 C :    0.073260
   5 C :   -0.064602
   6 N :    0.202777
   7 O :   -0.220223
   8 O :   -0.194431
   9 F :   -0.088895
  10 H :    0.074546
  11 H :    0.085824
  12 H :    0.099464
  13 C :   -0.356821
  14 H :    0.002032
  15 H :    0.001430
  16 H :    0.001820
  17 S :   -0.626261

-------------------------------
LOEWDIN REDUCED ORBITAL CHARGES
-------------------------------
  0 C s       :     2.731213  s :     2.731213
      pz      :     0.851948  p :     2.835894
      px      :     1.095065
      py      :     0.888881
      dz2     :     0.122353  d :     0.350644
      dxz     :     0.103442
      dyz     :     0.052244
      dx2y2   :     0.037132
      dxy     :     0.035473
  1 N s       :     3.108312  s :     3.108312
      pz      :     1.294824  p :     3.907782
      px      :     1.437023
      py      :     1.175935
      dz2     :     0.018703  d :     0.064976
      dxz     :     0.018883
      dyz     :     0.009253
      dx2y2   :     0.010500
      dxy     :     0.007636
  2 C s       :     2.774916  s :     2.774916
      pz      :     1.042615  p :     2.988042
      px      :     1.098961
      py      :     0.846466
      dz2     :     0.063521  d :     0.193661
      dxz     :     0.073366
      dyz     :     0.030588
      dx2y2   :     0.015313
      dxy     :     0.010873
  3 C s       :     2.772528  s :     2.772528
      pz      :     1.079320  p :     3.132471
      px      :     1.096928
      py      :     0.956224
      dz2     :     0.035220  d :     0.129482
      dxz     :     0.047074
      dyz     :     0.008898
      dx2y2   :     0.022358
      dxy     :     0.015932
  4 C s       :     2.769287  s :     2.769287
      pz      :     1.074977  p :     3.022649
      px      :     1.104129
      py      :     0.843543
      dz2     :     0.042996  d :     0.134805
      dxz     :     0.040108
      dyz     :     0.023113
      dx2y2   :     0.016052
      dxy     :     0.012535
  5 C s       :     2.753239  s :     2.753239
      pz      :     1.088094  p :     3.129399
      px      :     0.960419
      py      :     1.080886
      dz2     :     0.039352  d :     0.181964
      dxz     :     0.074490
      dyz     :     0.020084
      dx2y2   :     0.030672
      dxy     :     0.017366
  6 N s       :     2.997913  s :     2.997913
      pz      :     1.219990  p :     3.530594
      px      :     1.229923
      py      :     1.080681
      dz2     :     0.079890  d :     0.268716
      dxz     :     0.092733
      dyz     :     0.045761
      dx2y2   :     0.025998
      dxy     :     0.024334
  7 O s       :     3.574478  s :     3.574478
      pz      :     1.273998  p :     4.614121
      px      :     1.847881
      py      :     1.492242
      dz2     :     0.020541  d :     0.031624
      dxz     :     0.004754
      dyz     :     0.006162
      dx2y2   :     0.000108
      dxy     :     0.000059
  8 O s       :     3.548727  s :     3.548727
      pz      :     1.681532  p :     4.610436
      px      :     1.481119
      py      :     1.447786
      dz2     :     0.003617  d :     0.035269
      dxz     :     0.014960
      dyz     :     0.002818
      dx2y2   :     0.008348
      dxy     :     0.005525
  9 F s       :     3.713792  s :     3.713792
      pz      :     1.540547  p :     5.367850
      px      :     1.936788
      py      :     1.890514
      dz2     :     0.004671  d :     0.007253
      dxz     :     0.001177
      dyz     :     0.001353
      dx2y2   :     0.000041
      dxy     :     0.000011
 10 H s       :     0.856605  s :     0.856605
      pz      :     0.014557  p :     0.068849
      px      :     0.042669
      py      :     0.011623
 11 H s       :     0.842019  s :     0.842019
      pz      :     0.047440  p :     0.072157
      px      :     0.011325
      py      :     0.013392
 12 H s       :     0.827126  s :     0.827126
      pz      :     0.021231  p :     0.073411
      px      :     0.040512
      py      :     0.011668
 13 C s       :     2.858170  s :     2.858170
      pz      :     1.131638  p :     3.391753
      px      :     1.134395
      py      :     1.125719
      dz2     :     0.033958  d :     0.106897
      dxz     :     0.015619
      dyz     :     0.010541
      dx2y2   :     0.033503
      dxy     :     0.013276
 14 H s       :     0.926191  s :     0.926191
      pz      :     0.014257  p :     0.071777
      px      :     0.014179
      py      :     0.043340
 15 H s       :     0.926801  s :     0.926801
      pz      :     0.041972  p :     0.071770
      px      :     0.014703
      py      :     0.015095
 16 H s       :     0.926404  s :     0.926404
      pz      :     0.015446  p :     0.071776
      px      :     0.040352
      py      :     0.015978
 17 S s       :     5.605974  s :     5.605974
      pz      :     3.660015  p :    10.983077
      px      :     3.572553
      py      :     3.750510
      dz2     :     0.003686  d :     0.037209
      dxz     :     0.012912
      dyz     :     0.007138
      dx2y2   :     0.004380
      dxy     :     0.009092


                      *****************************
                      * MAYER POPULATION ANALYSIS *
                      *****************************

  NA   - Mulliken gross atomic population
  ZA   - Total nuclear charge
  QA   - Mulliken gross atomic charge
  VA   - Mayer's total valence
  BVA  - Mayer's bonded valence
  FA   - Mayer's free valence

  ATOM       NA         ZA         QA         VA         BVA        FA
  0 C      6.0121     6.0000    -0.0121     4.2627     4.2627    -0.0000
  1 N      7.1727     7.0000    -0.1727     2.6952     2.6952    -0.0000
  2 C      6.2787     6.0000    -0.2787     4.0428     4.0428     0.0000
  3 C      6.3427     6.0000    -0.3427     4.5659     4.5659     0.0000
  4 C      5.4931     6.0000     0.5069     4.0466     4.0466     0.0000
  5 C      6.1767     6.0000    -0.1767     3.3874     3.3874    -0.0000
  6 N      7.0083     7.0000    -0.0083     4.0179     4.0179    -0.0000
  7 O      8.1640     8.0000    -0.1640     2.1076     2.1076    -0.0000
  8 O      8.1182     8.0000    -0.1182     2.1952     2.1952    -0.0000
  9 F      9.1202     9.0000    -0.1202     0.9268     0.9268    -0.0000
 10 H      0.7203     1.0000     0.2797     0.8819     0.8819     0.0000
 11 H      0.7189     1.0000     0.2811     0.9065     0.9065    -0.0000
 12 H      0.6766     1.0000     0.3234     0.8347     0.8347    -0.0000
 13 C      6.4383     6.0000    -0.4383     3.5880     3.5880    -0.0000
 14 H      0.8703     1.0000     0.1297     0.9421     0.9421    -0.0000
 15 H      0.8690     1.0000     0.1310     0.9311     0.9311    -0.0000
 16 H      0.8713     1.0000     0.1287     0.9416     0.9416    -0.0000
 17 S     16.9487    16.0000    -0.9487     0.6167     0.6167     0.0000

  Mayer bond orders larger than 0.100000
B(  0-C ,  1-N ) :   1.2962 B(  0-C ,  2-C ) :   0.1709 B(  0-C ,  3-C ) :   0.1612 
B(  0-C ,  4-C ) :   0.2552 B(  0-C ,  5-C ) :   1.2375 B(  0-C ,  6-N ) :  -0.1835 
B(  0-C ,  7-O ) :   0.1008 B(  0-C ,  8-O ) :  -0.1087 B(  0-C ,  9-F ) :   1.3612 
B(  1-N ,  2-C ) :   1.1479 B(  1-N ,  5-C ) :   0.1891 B(  2-C ,  3-C ) :   1.7052 
B(  2-C ,  5-C ) :   0.1258 B(  2-C , 10-H ) :   0.8874 B(  3-C ,  4-C ) :   1.4311 
B(  3-C ,  5-C ) :   0.1241 B(  3-C ,  8-O ) :   0.1654 B(  3-C , 11-H ) :   0.8341 
B(  4-C ,  5-C ) :   1.5477 B(  4-C ,  8-O ) :   0.2460 B(  4-C ,  9-F ) :  -0.1329 
B(  4-C , 12-H ) :   0.7146 B(  5-C ,  6-N ) :   0.6738 B(  5-C ,  7-O ) :  -0.1155 
B(  5-C ,  8-O ) :  -0.2169 B(  5-C ,  9-F ) :  -0.3417 B(  5-C , 12-H ) :   0.1483 
B(  6-N ,  7-O ) :   1.8198 B(  6-N ,  8-O ) :   1.8451 B(  7-O ,  8-O ) :   0.2468 
B( 13-C , 14-H ) :   0.9829 B( 13-C , 15-H ) :   0.9782 B( 13-C , 16-H ) :   0.9845 
B( 13-C , 17-S ) :   0.6467 

-------
TIMINGS
-------

Total SCF time: 0 days 0 hours 0 min 17 sec 

Total time                  ....      17.655 sec
Sum of individual times     ....      17.018 sec  ( 96.4%)

Fock matrix formation       ....      15.157 sec  ( 85.8%)
  Split-RI-J                ....       0.931 sec  (  6.1% of F)
  Chain of spheres X        ....      11.090 sec  ( 73.2% of F)
  XC integration            ....       1.814 sec  ( 12.0% of F)
    Basis function eval.    ....       0.132 sec  (  7.3% of XC)
    Density eval.           ....       0.327 sec  ( 18.0% of XC)
    XC-Functional eval.     ....       0.185 sec  ( 10.2% of XC)
    XC-Potential eval.      ....       0.111 sec  (  6.1% of XC)
Diagonalization             ....       0.027 sec  (  0.2%)
Density matrix formation    ....       0.011 sec  (  0.1%)
Population analysis         ....       0.052 sec  (  0.3%)
Initial guess               ....       0.041 sec  (  0.2%)
Orbital Transformation      ....       0.000 sec  (  0.0%)
Orbital Orthonormalization  ....       0.021 sec  (  0.1%)
DIIS solution               ....       0.011 sec  (  0.1%)
SOSCF solution              ....       0.254 sec  (  1.4%)
Grid generation             ....       1.466 sec  (  8.3%)

Maximum memory used throughout the entire SCF-calculation: 68.7 MB

-------------------------   --------------------
FINAL SINGLE POINT ENERGY      -990.266170256470
-------------------------   --------------------

                                *** OPTIMIZATION RUN DONE ***

                            ***************************************
                            *     ORCA property calculations      *
                            ***************************************

                                    ---------------------
                                    Active property flags
                                    ---------------------
   (+) Dipole Moment


------------------------------------------------------------------------------
                       ORCA ELECTRIC PROPERTIES CALCULATION
------------------------------------------------------------------------------

Dipole Moment Calculation                       ... on
Quadrupole Moment Calculation                   ... off
Polarizability Calculation                      ... off
GBWName                                         ... structure_opt.gbw
Electron density                                ... structure_opt.scfp
The origin for moment calculation is the CENTER OF MASS  = ( 1.091862, -1.518217  5.495345)

-------------
DIPOLE MOMENT
-------------
                                X             Y             Z
Electronic contribution:    -19.93999      12.52410     -13.43515
Nuclear contribution   :     14.08872      -8.17949      14.45262
                        -----------------------------------------
Total Dipole Moment    :     -5.85128       4.34461       1.01747
                        -----------------------------------------
Magnitude (a.u.)       :      7.35855
Magnitude (Debye)      :     18.70396



--------------------
Rotational spectrum 
--------------------
 
Rotational constants in cm-1:     0.061347     0.007520     0.006963 
Rotational constants in MHz :  1839.134607   225.435366   208.743271 

 Dipole components along the rotational axes: 
x,y,z [a.u.] :     6.549754     3.204610    -0.989707 
x,y,z [Debye]:    16.648151     8.145472    -2.515636 

 

Timings for individual modules:

Sum of individual times         ...     1448.703 sec (=  24.145 min)
GTO integral calculation        ...       87.511 sec (=   1.459 min)   6.0 %
SCF iterations                  ...     1119.878 sec (=  18.665 min)  77.3 %
SCF Gradient evaluation         ...      239.536 sec (=   3.992 min)  16.5 %
Geometry relaxation             ...        1.779 sec (=   0.030 min)   0.1 %
                             ****ORCA TERMINATED NORMALLY****
TOTAL RUN TIME: 0 days 0 hours 25 minutes 37 seconds 662 msec
