
                                 *****************
                                 * O   R   C   A *
                                 *****************

                                            #,                                       
                                            ###                                      
                                            ####                                     
                                            #####                                    
                                            ######                                   
                                           ########,                                 
                                     ,,################,,,,,                         
                               ,,#################################,,                 
                          ,,##########################################,,             
                       ,#########################################, ''#####,          
                    ,#############################################,,   '####,        
                  ,##################################################,,,,####,       
                ,###########''''           ''''###############################       
              ,#####''   ,,,,##########,,,,          '''####'''          '####       
            ,##' ,,,,###########################,,,                        '##       
           ' ,,###''''                  '''############,,,                           
         ,,##''                                '''############,,,,        ,,,,,,###''
      ,#''                                            '''#######################'''  
     '                                                          ''''####''''         
             ,#######,   #######,   ,#######,      ##                                
            ,#'     '#,  ##    ##  ,#'     '#,    #''#        ######   ,####,        
            ##       ##  ##   ,#'  ##            #'  '#       #        #'  '#        
            ##       ##  #######   ##           ,######,      #####,   #    #        
            '#,     ,#'  ##    ##  '#,     ,#' ,#      #,         ##   #,  ,#        
             '#######'   ##     ##  '#######'  #'      '#     #####' # '####'        



                  #######################################################
                  #                        -***-                        #
                  #          Department of theory and spectroscopy      #
                  #    Directorship and core code : Frank Neese         #
                  #        Max Planck Institute fuer Kohlenforschung    #
                  #                Kaiser Wilhelm Platz 1               #
                  #                 D-45470 Muelheim/Ruhr               #
                  #                      Germany                        #
                  #                                                     #
                  #                  All rights reserved                #
                  #                        -***-                        #
                  #######################################################


                         Program Version 5.0.4 -  RELEASE  -


 With contributions from (in alphabetic order):
   Daniel Aravena         : Magnetic Suceptibility
   Michael Atanasov       : Ab Initio Ligand Field Theory (pilot matlab implementation)
   Alexander A. Auer      : GIAO ZORA, VPT2 properties, NMR spectrum
   Ute Becker             : Parallelization
   Giovanni Bistoni       : ED, misc. LED, open-shell LED, HFLD
   Martin Brehm           : Molecular dynamics
   Dmytro Bykov           : SCF Hessian
   Vijay G. Chilkuri      : MRCI spin determinant printing, contributions to CSF-ICE
   Dipayan Datta          : RHF DLPNO-CCSD density
   Achintya Kumar Dutta   : EOM-CC, STEOM-CC
   Dmitry Ganyushin       : Spin-Orbit,Spin-Spin,Magnetic field MRCI
   Miquel Garcia          : C-PCM and meta-GGA Hessian, CC/C-PCM, Gaussian charge scheme
   Yang Guo               : DLPNO-NEVPT2, F12-NEVPT2, CIM, IAO-localization
   Andreas Hansen         : Spin unrestricted coupled pair/coupled cluster methods
   Benjamin Helmich-Paris : MC-RPA, TRAH-SCF, COSX integrals
   Lee Huntington         : MR-EOM, pCC
   Robert Izsak           : Overlap fitted RIJCOSX, COSX-SCS-MP3, EOM
   Marcus Kettner         : VPT2
   Christian Kollmar      : KDIIS, OOCD, Brueckner-CCSD(T), CCSD density, CASPT2, CASPT2-K
   Simone Kossmann        : Meta GGA functionals, TD-DFT gradient, OOMP2, MP2 Hessian
   Martin Krupicka        : Initial AUTO-CI
   Lucas Lang             : DCDCAS
   Marvin Lechner         : AUTO-CI (C++ implementation), FIC-MRCC
   Dagmar Lenk            : GEPOL surface, SMD
   Dimitrios Liakos       : Extrapolation schemes; Compound Job, initial MDCI parallelization
   Dimitrios Manganas     : Further ROCIS development; embedding schemes
   Dimitrios Pantazis     : SARC Basis sets
   Anastasios Papadopoulos: AUTO-CI, single reference methods and gradients
   Taras Petrenko         : DFT Hessian,TD-DFT gradient, ASA, ECA, R-Raman, ABS, FL, XAS/XES, NRVS
   Peter Pinski           : DLPNO-MP2, DLPNO-MP2 Gradient
   Christoph Reimann      : Effective Core Potentials
   Marius Retegan         : Local ZFS, SOC
   Christoph Riplinger    : Optimizer, TS searches, QM/MM, DLPNO-CCSD(T), (RO)-DLPNO pert. Triples
   Tobias Risthaus        : Range-separated hybrids, TD-DFT gradient, RPA, STAB
   Michael Roemelt        : Original ROCIS implementation
   Masaaki Saitow         : Open-shell DLPNO-CCSD energy and density
   Barbara Sandhoefer     : DKH picture change effects
   Avijit Sen             : IP-ROCIS
   Kantharuban Sivalingam : CASSCF convergence, NEVPT2, FIC-MRCI
   Bernardo de Souza      : ESD, SOC TD-DFT
   Georgi Stoychev        : AutoAux, RI-MP2 NMR, DLPNO-MP2 response
   Willem Van den Heuvel  : Paramagnetic NMR
   Boris Wezisla          : Elementary symmetry handling
   Frank Wennmohs         : Technical directorship


 We gratefully acknowledge several colleagues who have allowed us to
 interface, adapt or use parts of their codes:
   Stefan Grimme, W. Hujo, H. Kruse, P. Pracht,  : VdW corrections, initial TS optimization,
                  C. Bannwarth, S. Ehlert          DFT functionals, gCP, sTDA/sTD-DF
   Ed Valeev, F. Pavosevic, A. Kumar             : LibInt (2-el integral package), F12 methods
   Garnet Chan, S. Sharma, J. Yang, R. Olivares  : DMRG
   Ulf Ekstrom                                   : XCFun DFT Library
   Mihaly Kallay                                 : mrcc  (arbitrary order and MRCC methods)
   Jiri Pittner, Ondrej Demel                    : Mk-CCSD
   Frank Weinhold                                : gennbo (NPA and NBO analysis)
   Christopher J. Cramer and Donald G. Truhlar   : smd solvation model
   Lars Goerigk                                  : TD-DFT with DH, B97 family of functionals
   V. Asgeirsson, H. Jonsson                     : NEB implementation
   FAccTs GmbH                                   : IRC, NEB, NEB-TS, DLPNO-Multilevel, CI-OPT
                                                   MM, QMMM, 2- and 3-layer-ONIOM, Crystal-QMMM,
                                                   LR-CPCM, SF, NACMEs, symmetry and pop. for TD-DFT,
                                                   nearIR, NL-DFT gradient (VV10), updates on ESD,
                                                   ML-optimized integration grids
   S Lehtola, MJT Oliveira, MAL Marques          : LibXC Library
   Liviu Ungur et al                             : ANISO software


 Your calculation uses the libint2 library for the computation of 2-el integrals
 For citations please refer to: http://libint.valeyev.net

 Your ORCA version has been built with support for libXC version: 5.1.0
 For citations please refer to: https://tddft.org/programs/libxc/

 This ORCA versions uses:
   CBLAS   interface :  Fast vector & matrix operations
   LAPACKE interface :  Fast linear algebra routines
   SCALAPACK package :  Parallel linear algebra routines
   Shared memory     :  Shared parallel matrices
   BLAS/LAPACK       :  OpenBLAS 0.3.15  USE64BITINT DYNAMIC_ARCH NO_AFFINITY SkylakeX SINGLE_THREADED
        Core in use  :  SkylakeX
   Copyright (c) 2011-2014, The OpenBLAS Project




***************************************
The coordinates will be read from file: reactants.xyz
***************************************


Your calculation utilizes the SMD solvation module
Please cite in your paper:
A.V. Marenich, C.J. Cramer, D.G. Truhlar J. Phys. Chem. B, 113, (2009), 6378 

XCFun DFT library Copyright 2009-2010 Ulf Ekstrom and contributors.
See http://admol.org/xcfun for more information.
This is free software; see the source code for copying conditions.
There is ABSOLUTELY NO WARRANTY; not even for MERCHANTABILITY or FITNESS FOR A PARTICULAR PURPOSE.
For details see the documentation.
Scientific users of this library should cite U. Ekstrom, L. Visscher, R. Bast, A. J. Thorvaldsen and K. Ruud;
J.Chem.Theor.Comp. 2010, DOI: 10.1021/ct100117s
XCFun Version 0.99 

================================================================================

----- Orbital basis set information -----
Your calculation utilizes the basis: 6-311++G**
   H, Li - Ne  : R. Krishnan, J. S. Binkley, R. Seeger and J. A. Pople, J. Chem. Phys. 72, 650 (1980).
   Na - Ar     : A. D. McLean and G. S. Chandler J. Chem. Phys. 72, 5639, (1980).
   K  - Ca     : J.-P. Blaudeau, M. P. McGrath, L. A. Curtiss and L. Radom, J. Chem. Phys. 107, 5016 (1997).
   Ga - Kr     : L. A. Curtiss, M. P. McGrath, J.-P. Blandeau, N. E. Davis, R. C. Binning and L. Radom, J. Chem. Phys. 103, 6104 (1995).
   Pol./Diff.
   H, Li - Cl  : T. Clark, J. Chandrasekhar and P. v. R. Schleyer, J. Comp. Chem. 4, 294 (1983).
   H - Ne      : M. J. Frisch, J. A. Pople and J. S. Binkley, J. Chem. Phys. 80, 3265 (1984).

----- AuxJ basis set information -----
Your calculation utilizes the auxiliary basis: def2/J
   F. Weigend, Phys. Chem. Chem. Phys. 8, 1057 (2006).

================================================================================
                                        WARNINGS
                       Please study these warnings very carefully!
================================================================================


WARNING: Geometry Optimization
  ===> : Switching off AutoStart
         For restart on a previous wavefunction, please use MOREAD

INFO   : the flag for use of the SHARK integral package has been found!

================================================================================
                                       INPUT FILE
================================================================================
NAME = structure_opt.inp
|  1> !wb97x 6-311++G** OPT CPCM(WATER)
|  2> %maxcore  3500
|  3> %pal
|  4> nprocs 24
|  5> end
|  6> %cpcm
|  7> smd true
|  8> SMDsolvent "water"
|  9> end
| 10> %geom
| 11> ConstrainFragments {1} end
| 12> ConstrainFragments {4} end
| 13> ConnectFragments
| 14> { 1 2 C 5 7 }
| 15> { 1 2 C 0 9 }
| 16> { 2 3 C 13 5 }
| 17> { 3 4 C 13 17 }
| 18> end
| 19> end
| 20> * XYZfile -1 1 reactants.xyz
| 21> %geom
| 22> Fragments
| 23> 1 {0:5} end
| 24> 2 {6:12} end
| 25> 3 {13:16} end
| 26> 4 {17} end
| 27> end
| 28> end
| 29> 
| 30>                          ****END OF INPUT****
================================================================================

                       *****************************
                       * Geometry Optimization Run *
                       *****************************

Geometry optimization settings:
Update method            Update   .... BFGS
Choice of coordinates    CoordSys .... Z-matrix Internals
Initial Hessian          InHess   .... Almoef's Model

Convergence Tolerances:
Energy Change            TolE     ....  5.0000e-06 Eh
Max. Gradient            TolMAXG  ....  3.0000e-04 Eh/bohr
RMS Gradient             TolRMSG  ....  1.0000e-04 Eh/bohr
Max. Displacement        TolMAXD  ....  4.0000e-03 bohr
RMS Displacement         TolRMSD  ....  2.0000e-03 bohr
Strict Convergence                ....  False
------------------------------------------------------------------------------
                        ORCA OPTIMIZATION COORDINATE SETUP
------------------------------------------------------------------------------

The optimization will be done in new redundant internal coordinates
Making redundant internal coordinates   ...  (new redundants) done
Evaluating the initial hessian          ...  (Almloef) done
Evaluating the coordinates              ...  done
Calculating the B-matrix                .... done
Calculating the G-matrix                .... done
Diagonalizing the G-matrix              .... done
Imposing constraints:
 Iter   0:  RMS(Cart)=    0.0000000000 RMS(Int)=    0.0000000000
CONVERGED
Small eigenvalue found = 2.235e-03
Small eigenvalue found = 1.148e-02
Small eigenvalue found = 1.391e-02
The first mode is                       ....   56
The number of degrees of freedom        ....   48
Storing new coordinates                 .... done

    -----------------------------------------------------------------
                    Redundant Internal Coordinates


    -----------------------------------------------------------------
         Definition                    Initial Value    Approx d2E/dq
    -----------------------------------------------------------------
      1. B(N   1,C   0)                  1.3611         0.622347   
      2. B(C   2,N   1)                  1.3582         0.628875   
      3. B(C   3,C   2)                  1.3949         0.613658   
      4. B(C   4,C   3)                  1.3934         0.616971   
      5. B(C   5,C   0)                  1.4122         0.575774   
      6. B(C   5,C   4)                  1.4061         0.588917   
      7. B(O   7,C   5)                  2.3435         0.016853 C 
      8. B(O   7,N   6)                  1.2480         0.844503   
      9. B(O   8,N   6)                  1.3769         0.525866   
     10. B(F   9,C   0)                  1.3500         0.602260 C 
     11. B(F   9,N   6)                  2.8678         0.002044   
     12. B(F   9,O   7)                  2.5821         0.005837   
     13. B(H  11,H  10)                  2.4818         0.000415   
     14. B(H  12,O   8)                  2.5152         0.001717   
     15. B(H  12,H  11)                  2.4663         0.000439   
     16. B(H  12,N   6)                  2.7029         0.000861   
     17. B(C  13,H  10)                  6.3761         0.000000 C 
     18. B(H  14,C  13)                  1.0941         0.354705   
     19. B(H  15,C  13)                  1.0929         0.356312   
     20. B(H  16,C  13)                  1.0936         0.355381   
     21. B(S  17,C  13)                  1.8032         0.369230 C 
     22. A(C   5,C   0,F   9)          121.1725         0.421471 C 
     23. A(N   1,C   0,C   5)          120.1571         0.425830   
     24. A(N   1,C   0,F   9)          118.6704         0.424592 C 
     25. A(C   0,N   1,C   2)          121.9524         0.429796   
     26. A(N   1,C   2,C   3)          120.0262         0.431531   
     27. A(C   2,C   3,C   4)          119.3498         0.432882   
     28. A(C   3,C   4,C   5)          120.4718         0.429694   
     29. A(C   4,C   5,O   7)          147.4261         0.238582 C 
     30. A(C   0,C   5,O   7)           94.5313         0.237820 C 
     31. A(C   0,C   5,C   4)          118.0425         0.424407   
     32. A(O   8,N   6,H  12)           67.2752         0.152046   
     33. A(O   7,N   6,H  12)          174.2234         0.159181   
     34. A(O   7,N   6,O   8)          118.5014         0.433822   
     35. A(F   9,N   6,H  12)          110.0144         0.106848   
     36. A(O   7,N   6,F   9)           64.2090         0.186619   
     37. A(N   6,O   7,F   9)           89.9947         0.212791   
     38. A(C   5,O   7,N   6)           31.7456         0.248611 C 
     39. A(C   5,O   7,F   9)           58.2491         0.140475 C 
     40. A(N   6,O   8,H  12)           82.3972         0.162696   
     41. A(N   6,F   9,O   7)           25.7962         0.120482   
     42. A(C   0,F   9,O   7)           86.0471         0.203997 C 
     43. A(C   0,F   9,N   6)           60.2509         0.179684 C 
     44. A(H  11,H  10,C  13)          157.8485         0.089430 C 
     45. A(H  10,H  11,H  12)          119.7063         0.095112   
     46. A(N   6,H  12,O   8)           30.3275         0.103999   
     47. A(N   6,H  12,H  11)          126.7169         0.097913   
     48. A(O   8,H  12,H  11)          157.0445         0.099419   
     49. A(H  14,C  13,H  15)          109.0414         0.289670   
     50. A(H  14,C  13,H  16)          108.9079         0.289551   
     51. A(H  15,C  13,H  16)          109.0416         0.289757   
     52. A(H  10,C  13,H  14)          125.6666         0.091481 C 
     53. A(H  10,C  13,H  15)           77.4626         0.091484 C 
     54. A(H  10,C  13,H  16)          119.7751         0.091482 C 
     55. A(H  14,C  13,S  17)          109.9718         0.339316 C 
     56. A(H  15,C  13,S  17)          109.9554         0.339573 C 
     57. A(H  16,C  13,S  17)          109.8969         0.339424 C 
     58. A(H  10,C  13,S  17)           32.6334         0.092098   
     59. D(C   2,N   1,C   0,C   5)     -0.1041         0.028432   
     60. D(C   2,N   1,C   0,F   9)    179.9112         0.028432 C 
     61. D(C   3,C   2,N   1,C   0)      0.1066         0.025783   
     62. D(C   4,C   3,C   2,N   1)     -0.0956         0.020965   
     63. D(C   5,C   4,C   3,C   2)      0.0854         0.021202   
     64. D(C   4,C   5,C   0,N   1)      0.0896         0.022761   
     65. D(O   7,C   5,C   0,N   1)    179.9933         0.022761 C 
     66. D(O   7,C   5,C   4,C   3)   -179.9036         0.021656 C 
     67. D(C   0,C   5,C   4,C   3)     -0.0818         0.021656   
     68. D(C   4,C   5,C   0,F   9)   -179.9260         0.022761 C 
     69. D(O   7,C   5,C   0,F   9)     -0.0223         0.022761 C 
     70. D(F   9,O   7,C   5,C   0)      0.0117         0.001517 C 
     71. D(N   6,O   7,C   5,C   0)   -179.9521         0.001517 C 
     72. D(N   6,O   7,C   5,C   4)     -0.1099         0.001517 C 
     73. D(F   9,O   7,C   5,C   4)    179.8539         0.001517 C 
     74. D(F   9,O   7,N   6,O   8)    179.9932         0.079747   
     75. D(F   9,O   7,N   6,H  12)      0.1568         0.079747   
     76. D(C   5,O   7,N   6,O   8)   -179.9761         0.079747 C 
     77. D(C   5,O   7,N   6,H  12)      0.1876         0.079747 C 
     78. D(C   5,O   7,N   6,F   9)      0.0308         0.079747 C 
     79. D(H  12,O   8,N   6,O   7)   -179.9821         0.025649   
     80. D(C   0,F   9,O   7,C   5)     -0.0123         0.001503 C 
     81. D(N   6,F   9,C   0,C   5)      0.0236         0.032536 C 
     82. D(O   7,F   9,C   0,N   1)   -179.9952         0.032536 C 
     83. D(O   7,F   9,C   0,C   5)      0.0202         0.032536 C 
     84. D(O   7,F   9,N   6,H  12)   -179.9832         0.001500   
     85. D(C   0,F   9,N   6,O   7)   -179.9922         0.001500 C 
     86. D(C   0,F   9,N   6,H  12)      0.0246         0.001500 C 
     87. D(N   6,F   9,O   7,C   5)     -0.0190         0.001503 C 
     88. D(N   6,F   9,C   0,N   1)   -179.9918         0.032536 C 
     89. D(C   0,F   9,O   7,N   6)      0.0068         0.001503 C 
     90. D(O   7,F   9,O   8,H  12)   -179.9897         0.001500   
     91. D(C   0,F   9,O   8,H  12)      0.0232         0.001500 C 
     92. D(H  12,H  11,H  10,C  13)    145.2019         0.001501 C 
     93. D(O   8,H  12,N   6,O   7)    179.8441         0.001501   
     94. D(O   8,H  12,N   6,F   9)    179.9943         0.001501   
     95. D(H  11,H  12,N   6,O   7)     -0.1748         0.001501   
     96. D(H  11,H  12,N   6,O   8)    179.9811         0.001501   
     97. D(H  11,H  12,N   6,F   9)     -0.0245         0.001501   
     98. D(H  11,H  12,O   8,N   6)     -0.0388         0.001502   
     99. D(N   6,H  12,H  11,H  10)      0.0466         0.001502   
    100. D(O   8,H  12,H  11,H  10)      0.0710         0.001502   
    101. D(H  14,C  13,H  10,H  11)    145.4413         0.001500 C 
    102. D(H  15,C  13,H  10,H  11)     40.8580         0.001500 C 
    103. D(H  16,C  13,H  10,H  11)    -64.0834         0.001500 C 
    104. D(S  17,C  13,H  10,H  11)   -144.5063         0.001500   
    -----------------------------------------------------------------

Number of atoms                         .... 18
Number of degrees of freedom            .... 104

         *************************************************************
         *                GEOMETRY OPTIMIZATION CYCLE   1            *
         *************************************************************
---------------------------------
CARTESIAN COORDINATES (ANGSTROEM)
---------------------------------
  C      0.000000    0.000000    1.820000
  N      1.178000   -0.196000    2.473000
  C      1.255000   -0.207000    3.829000
  C      0.105000   -0.016000    4.595000
  C     -1.116000    0.187000    3.955000
  C     -1.192000    0.198000    2.551000
  N     -2.456000    0.409000    1.893000
  O     -2.541000    0.423000    0.648000
  O     -3.602000    0.600000    2.632000
  F      0.000000    0.000000    0.470000
  H      2.209000   -0.366000    4.313000
  H      0.163000   -0.026000    5.676000
  H     -2.005000    0.335000    4.557000
  C      8.372000    0.000000    2.720000
  H      8.939000   -0.767000    2.184000
  H      8.416000   -0.208000    3.792000
  H      8.826000    0.976000    2.527000
  S      6.657000    0.000000    2.163000

----------------------------
CARTESIAN COORDINATES (A.U.)
----------------------------
  NO LB      ZA    FRAG     MASS         X           Y           Z
   0 C     6.0000    1    12.011    0.000000    0.000000    3.439302
   1 N     7.0000    1    14.007    2.226097   -0.370386    4.673293
   2 C     6.0000    1    12.011    2.371606   -0.391173    7.235761
   3 C     6.0000    1    12.011    0.198421   -0.030236    8.683292
   4 C     6.0000    1    12.011   -2.108934    0.353379    7.473867
   5 C     6.0000    1    12.011   -2.252554    0.374166    4.820691
   6 N     7.0000    2    14.007   -4.641167    0.772898    3.577252
   7 O     8.0000    2    15.999   -4.801794    0.799354    1.224543
   8 O     8.0000    2    15.999   -6.806794    1.133836    4.973759
   9 F     9.0000    2    18.998    0.000000    0.000000    0.888171
  10 H     1.0000    2     1.008    4.174405   -0.691640    8.150389
  11 H     1.0000    2     1.008    0.308025   -0.049133   10.726086
  12 H     1.0000    2     1.008   -3.788901    0.633058    8.611482
  13 C     6.0000    3    12.011   15.820787    0.000000    5.140055
  14 H     1.0000    3     1.008   16.892262   -1.449420    4.127162
  15 H     1.0000    3     1.008   15.903935   -0.393063    7.165841
  16 H     1.0000    3     1.008   16.678723    1.844373    4.775338
  17 S    16.0000    4    32.060   12.579907    0.000000    4.087478

----------------------------------------------
CARTESIAN COORDINATES OF FRAGMENTS (ANGSTROEM)
----------------------------------------------

 FRAGMENT 1 
  C     0.000000    0.000000    1.820000
  N     1.178000   -0.196000    2.473000
  C     1.255000   -0.207000    3.829000
  C     0.105000   -0.016000    4.595000
  C    -1.116000    0.187000    3.955000
  C    -1.192000    0.198000    2.551000

 FRAGMENT 2 
  N    -2.456000    0.409000    1.893000
  O    -2.541000    0.423000    0.648000
  O    -3.602000    0.600000    2.632000
  F     0.000000    0.000000    0.470000
  H     2.209000   -0.366000    4.313000
  H     0.163000   -0.026000    5.676000
  H    -2.005000    0.335000    4.557000

 FRAGMENT 3 
  C     8.372000    0.000000    2.720000
  H     8.939000   -0.767000    2.184000
  H     8.416000   -0.208000    3.792000
  H     8.826000    0.976000    2.527000

 FRAGMENT 4 
  S     6.657000    0.000000    2.163000

--------------------------------
INTERNAL COORDINATES (ANGSTROEM)
--------------------------------
 C      0   0   0     0.000000000000     0.00000000     0.00000000
 N      1   0   0     1.361069065110     0.00000000     0.00000000
 C      2   1   0     1.358228993948   121.95243626     0.00000000
 C      3   2   1     1.394896770374   120.02620694     0.10655554
 C      4   3   2     1.393431017309   119.34983770   359.90435571
 C      5   4   3     1.406098502951   120.47178172     0.08537773
 N      6   5   4     1.440548853736   120.30882193   180.03842131
 O      7   6   5     1.247976762604   121.13704526   179.93147861
 O      7   6   5     1.376923382037   120.36156660   359.90709941
 F      1   2   3     1.350000000000   118.67037638   179.91115691
 H      3   2   1     1.081504969938   119.86701156   179.98746005
 H      4   3   2     1.082601034546   120.19197482   179.89186186
 H      5   4   3     1.083803026384   118.91636700   180.02085854
 C     11   3   2     6.376062578112   137.08618664    18.54136182
 H     14  11   3     1.094108769730   125.66664869   278.95131162
 H     14  11   3     1.092878767293    77.46257185   174.36797746
 H     14  11   3     1.093590874139   119.77505229    69.42661942
 S     14  11   3     1.803184405434    32.63341019   349.00362981

---------------------------
INTERNAL COORDINATES (A.U.)
---------------------------
 C      0   0   0     0.000000000000     0.00000000     0.00000000
 N      1   0   0     2.572047782411     0.00000000     0.00000000
 C      2   1   0     2.566680825712   121.95243626     0.00000000
 C      3   2   1     2.635972881098   120.02620694     0.10655554
 C      4   3   2     2.633203009226   119.34983770   359.90435571
 C      5   4   3     2.657141087893   120.47178172     0.08537773
 N      6   5   4     2.722242816095   120.30882193   180.03842131
 O      7   6   5     2.358334302820   121.13704526   179.93147861
 O      7   6   5     2.602008099442   120.36156660   359.90709941
 F      1   2   3     2.551130280794   118.67037638   179.91115691
 H      3   2   1     2.043748205657   119.86701156   179.98746005
 H      4   3   2     2.045819467592   120.19197482   179.89186186
 H      5   4   3     2.048090902982   118.91636700   180.02085854
 C     11   3   2    12.049012085376   137.08618664    18.54136182
 H     14  11   3     2.067565935511   125.66664869   278.95131162
 H     14  11   3     2.065241567761    77.46257185   174.36797746
 H     14  11   3     2.066587254678   119.77505229    69.42661942
 S     14  11   3     3.407524695228    32.63341019   349.00362981

---------------------
BASIS SET INFORMATION
---------------------
There are 6 groups of distinct atoms

 Group   1 Type C   : 12s6p1d contracted to 5s4p1d pattern {63111/3111/1}
 Group   2 Type N   : 12s6p1d contracted to 5s4p1d pattern {63111/3111/1}
 Group   3 Type O   : 12s6p1d contracted to 5s4p1d pattern {63111/3111/1}
 Group   4 Type F   : 12s6p1d contracted to 5s4p1d pattern {63111/3111/1}
 Group   5 Type H   : 6s1p contracted to 4s1p pattern {3111/1}
 Group   6 Type S   : 14s10p1d contracted to 7s6p1d pattern {6311111/421111/1}

Atom   0C    basis set group =>   1
Atom   1N    basis set group =>   2
Atom   2C    basis set group =>   1
Atom   3C    basis set group =>   1
Atom   4C    basis set group =>   1
Atom   5C    basis set group =>   1
Atom   6N    basis set group =>   2
Atom   7O    basis set group =>   3
Atom   8O    basis set group =>   3
Atom   9F    basis set group =>   4
Atom  10H    basis set group =>   5
Atom  11H    basis set group =>   5
Atom  12H    basis set group =>   5
Atom  13C    basis set group =>   1
Atom  14H    basis set group =>   5
Atom  15H    basis set group =>   5
Atom  16H    basis set group =>   5
Atom  17S    basis set group =>   6
---------------------------------
AUXILIARY/J BASIS SET INFORMATION
---------------------------------
There are 6 groups of distinct atoms

 Group   1 Type C   : 12s5p4d2f1g contracted to 6s4p3d1f1g pattern {711111/2111/211/2/1}
 Group   2 Type N   : 12s5p4d2f1g contracted to 6s4p3d1f1g pattern {711111/2111/211/2/1}
 Group   3 Type O   : 12s5p4d2f1g contracted to 6s4p3d1f1g pattern {711111/2111/211/2/1}
 Group   4 Type F   : 12s5p4d2f1g contracted to 6s4p3d1f1g pattern {711111/2111/211/2/1}
 Group   5 Type H   : 5s2p1d contracted to 3s1p1d pattern {311/2/1}
 Group   6 Type S   : 14s5p5d2f1g contracted to 8s4p3d1f1g pattern {71111111/2111/311/2/1}

Atom   0C    basis set group =>   1
Atom   1N    basis set group =>   2
Atom   2C    basis set group =>   1
Atom   3C    basis set group =>   1
Atom   4C    basis set group =>   1
Atom   5C    basis set group =>   1
Atom   6N    basis set group =>   2
Atom   7O    basis set group =>   3
Atom   8O    basis set group =>   3
Atom   9F    basis set group =>   4
Atom  10H    basis set group =>   5
Atom  11H    basis set group =>   5
Atom  12H    basis set group =>   5
Atom  13C    basis set group =>   1
Atom  14H    basis set group =>   5
Atom  15H    basis set group =>   5
Atom  16H    basis set group =>   5
Atom  17S    basis set group =>   6


           ************************************************************
           *        Program running with 24 parallel MPI-processes    *
           *              working on a common directory               *
           ************************************************************
------------------------------------------------------------------------------
                           ORCA GTO INTEGRAL CALCULATION
                           -- RI-GTO INTEGRALS CHOSEN --
------------------------------------------------------------------------------
------------------------------------------------------------------------------
                   ___                                                        
                  /   \      - P O W E R E D   B Y -                         
                 /     \                                                     
                 |  |  |   _    _      __       _____    __    __             
                 |  |  |  | |  | |    /  \     |  _  \  |  |  /  |          
                  \  \/   | |  | |   /    \    | | | |  |  | /  /          
                 / \  \   | |__| |  /  /\  \   | |_| |  |  |/  /          
                |  |  |   |  __  | /  /__\  \  |    /   |      \           
                |  |  |   | |  | | |   __   |  |    \   |  |\   \          
                \     /   | |  | | |  |  |  |  | |\  \  |  | \   \       
                 \___/    |_|  |_| |__|  |__|  |_| \__\ |__|  \__/        
                                                                              
                      - O R C A' S   B I G   F R I E N D -                    
                                      &                                       
                       - I N T E G R A L  F E E D E R -                       
                                                                              
 v1 FN, 2020, v2 2021                                                         
------------------------------------------------------------------------------


Reading SHARK input file structure_opt.SHARKINP.tmp ... ok
----------------------
SHARK INTEGRAL PACKAGE
----------------------

Number of atoms                             ...     18
Number of basis functions                   ...    314
Number of shells                            ...    154
Maximum angular momentum                    ...      2
Integral batch strategy                     ... SHARK/LIBINT Hybrid
RI-J (if used) integral strategy            ... SPLIT-RIJ (Revised 2003 algorithm where possible)
Printlevel                                  ...      1
Contraction scheme used                     ... SEGMENTED contraction
Coulomb Range Separation                    ... NOT USED
Exchange Range Separation                   ... Long Range
   Mu parameter                             ...  0.300000
   Scaling (regular/separated)              ...  0.157706  0.842294
Finite Nucleus Model                        ... NOT USED
Auxiliary Coulomb fitting basis             ... AVAILABLE
   # of basis functions in Aux-J            ...    656
   # of shells in Aux-J                     ...    212
   Maximum angular momentum in Aux-J        ...      4
Auxiliary J/K fitting basis                 ... NOT available
Auxiliary Correlation fitting basis         ... NOT available
Auxiliary 'external' fitting basis          ... NOT available
Integral threshold                          ...     2.500000e-11
Primitive cut-off                           ...     2.500000e-12
Primitive pair pre-selection threshold      ...     2.500000e-12

Calculating pre-screening integrals         ... done (  0.0 sec) Dimension = 154
Organizing shell pair data                  ... done (  0.1 sec)
Shell pair information
Total number of shell pairs                 ...     11935
Shell pairs after pre-screening             ...      8810
Total number of primitive shell pairs       ...     38500
Primitive shell pairs kept                  ...     20185
          la=0 lb=0:   2700 shell pairs
          la=1 lb=0:   3617 shell pairs
          la=1 lb=1:   1250 shell pairs
          la=2 lb=0:    703 shell pairs
          la=2 lb=1:    488 shell pairs
          la=2 lb=2:     52 shell pairs

Calculating one electron integrals          ... done (  0.0 sec)
Calculating RI/J V-Matrix + Cholesky decomp.... done (  0.1 sec)
Calculating Nuclear repulsion               ... done (  0.0 sec) ENN=    670.437137365996 Eh

SHARK setup successfully completed in   0.6 seconds

Maximum memory used throughout the entire GTOINT-calculation: 17.5 MB


           ************************************************************
           *        Program running with 24 parallel MPI-processes    *
           *              working on a common directory               *
           ************************************************************
-------------------------------------------------------------------------------
                                 ORCA SCF
-------------------------------------------------------------------------------

------------
SCF SETTINGS
------------
Hamiltonian:
 Density Functional     Method          .... DFT(GTOs)
 Exchange Functional    Exchange        .... WB97X
 Correlation Functional Correlation     .... WB97X
 Gradients option       PostSCFGGA      .... off
 Hybrid DFT is turned on
   Fraction HF Exchange ScalHFX         ....  0.157706
   Scaling of DF-GGA-X  ScalDFX         ....  0.000000
   Scaling of DF-GGA-C  ScalDFC         ....  1.000000
   Scaling of DF-LDA-C  ScalLDAC        ....  1.000000
   Perturbative correction              ....  0.000000
   Density functional embedding theory  .... OFF
 Long-range corrected/Screened/Range-Separated Hybrid DFT is turned on
   Amount of maximum screened exact exchange              ....  0.842294
   Range separation parameter mu (erf(mu*r12)/r12)        ....  0.300000
 RI-approximation to the Coulomb term is turned on
   Number of AuxJ basis functions       .... 656
   RIJ-COSX (HFX calculated with COS-X)).... on


General Settings:
 Integral files         IntName         .... structure_opt
 Hartree-Fock type      HFTyp           .... RHF
 Total Charge           Charge          ....   -1
 Multiplicity           Mult            ....    1
 Number of Electrons    NEL             ....   98
 Basis Dimension        Dim             ....  314
 Nuclear Repulsion      ENuc            ....    670.4371373660 Eh

Convergence Acceleration:
 DIIS                   CNVDIIS         .... on
   Start iteration      DIISMaxIt       ....    12
   Startup error        DIISStart       ....  0.200000
   # of expansion vecs  DIISMaxEq       ....     5
   Bias factor          DIISBfac        ....   1.050
   Max. coefficient     DIISMaxC        ....  10.000
 Trust-Rad. Augm. Hess. CNVTRAH         .... auto
   Auto Start mean grad. ratio tolernc. ....  1.125000
   Auto Start start iteration           ....    20
   Auto Start num. interpolation iter.  ....    10
   Max. Number of Micro iterations      ....    16
   Max. Number of Macro iterations      .... Maxiter - #DIIS iter
   Number of Davidson start vectors     ....     2
   Converg. threshold I  (grad. norm)   ....   1.000e-05
   Converg. threshold II (energy diff.) ....   1.000e-08
   Grad. Scal. Fac. for Micro threshold ....   0.100
   Minimum threshold for Micro iter.    ....   0.010
   NR start threshold (gradient norm)   ....   0.001
   Initial trust radius                 ....   0.400
   Minimum AH scaling param. (alpha)    ....   1.000
   Maximum AH scaling param. (alpha)    .... 1000.000
   Orbital update algorithm             .... Taylor
   White noise on init. David. guess    .... on
   Maximum white noise                  ....   0.010
   Quad. conv. algorithm                .... NR
 SOSCF                  CNVSOSCF        .... on
   Start iteration      SOSCFMaxIt      ....   150
   Startup grad/error   SOSCFStart      ....  0.003300
 Level Shifting         CNVShift        .... on
   Level shift para.    LevelShift      ....    0.2500
   Turn off err/grad.   ShiftErr        ....    0.0010
 Zerner damping         CNVZerner       .... off
 Static damping         CNVDamp         .... on
   Fraction old density DampFac         ....    0.7000
   Max. Damping (<1)    DampMax         ....    0.9800
   Min. Damping (>=0)   DampMin         ....    0.0000
   Turn off err/grad.   DampErr         ....    0.1000
 Fernandez-Rico         CNVRico         .... off

SCF Procedure:
 Maximum # iterations   MaxIter         ....   125
 SCF integral mode      SCFMode         .... Direct
   Integral package                     .... SHARK and LIBINT hybrid scheme
 Reset frequency        DirectResetFreq ....    20
 Integral Threshold     Thresh          ....  2.500e-11 Eh
 Primitive CutOff       TCut            ....  2.500e-12 Eh

Convergence Tolerance:
 Convergence Check Mode ConvCheckMode   .... Total+1el-Energy
 Convergence forced     ConvForced      .... 0
 Energy Change          TolE            ....  1.000e-08 Eh
 1-El. energy change                    ....  1.000e-05 Eh
 Orbital Gradient       TolG            ....  1.000e-05
 Orbital Rotation angle TolX            ....  1.000e-05
 DIIS Error             TolErr          ....  5.000e-07


Diagonalization of the overlap matrix:
Smallest eigenvalue                        ... 4.197e-06
Time for diagonalization                   ...    0.038 sec
Threshold for overlap eigenvalues          ... 1.000e-08
Number of eigenvalues below threshold      ... 0
Time for construction of square roots      ...    0.055 sec
Total time needed                          ...    0.094 sec

Time for model grid setup =    0.272 sec

------------------------------
INITIAL GUESS: MODEL POTENTIAL
------------------------------
Loading Hartree-Fock densities                     ... done
Calculating cut-offs                               ... done
Initializing the effective Hamiltonian             ... done
Setting up the integral package (SHARK)            ... done
Starting the Coulomb interaction                   ... done (   0.1 sec)
Reading the grid                                   ... done
Mapping shells                                     ... done
Starting the XC term evaluation                    ... done (   0.0 sec)
  promolecular density results
     # of electrons  =     96.995570891
     EX              =    -96.552373293
     EC              =     -3.327202277
     EX+EC           =    -99.879575570
Transforming the Hamiltonian                       ... done (   0.0 sec)
Diagonalizing the Hamiltonian                      ... done (   0.0 sec)
Back transforming the eigenvectors                 ... done (   0.0 sec)
Now organizing SCF variables                       ... done
                      ------------------
                      INITIAL GUESS DONE (   0.4 sec)
                      ------------------
-------------------
DFT GRID GENERATION
-------------------

General Integration Accuracy     IntAcc      ... 4.388
Radial Grid Type                 RadialGrid  ... OptM3 with GC (2021)
Angular Grid (max. ang.)         AngularGrid ... 4 (Lebedev-302)
Angular grid pruning method      GridPruning ... 4 (adaptive)
Weight generation scheme         WeightScheme... Becke
Basis function cutoff            BFCut       ... 1.0000e-11
Integration weight cutoff        WCut        ... 1.0000e-14
Angular grids for H and He will be reduced by one unit
Partially contracted basis set               ... off
Rotationally invariant grid construction     ... off

Total number of grid points                  ...    98115
Total number of batches                      ...     1541
Average number of points per batch           ...       63
Average number of grid points per atom       ...     5451
Time for grid setup =    0.746 sec

--------------------
COSX GRID GENERATION
--------------------

GRIDX 1
-------
General Integration Accuracy     IntAcc      ... 3.816
Radial Grid Type                 RadialGrid  ... OptM3 with GC (2021)
Angular Grid (max. ang.)         AngularGrid ... 1 (Lebedev-50)
Angular grid pruning method      GridPruning ... 4 (adaptive)
Weight generation scheme         WeightScheme... Becke
Basis function cutoff            BFCut       ... 1.0000e-11
Integration weight cutoff        WCut        ... 1.0000e-14
Angular grids for H and He will be reduced by one unit
Partially contracted basis set               ... on
Rotationally invariant grid construction     ... off

Total number of grid points                  ...    12264
Total number of batches                      ...      201
Average number of points per batch           ...       61
Average number of grid points per atom       ...      681
UseSFitting                                  ... on

GRIDX 2
-------
General Integration Accuracy     IntAcc      ... 4.020
Radial Grid Type                 RadialGrid  ... OptM3 with GC (2021)
Angular Grid (max. ang.)         AngularGrid ... 2 (Lebedev-110)
Angular grid pruning method      GridPruning ... 4 (adaptive)
Weight generation scheme         WeightScheme... Becke
Basis function cutoff            BFCut       ... 1.0000e-11
Integration weight cutoff        WCut        ... 1.0000e-14
Angular grids for H and He will be reduced by one unit
Partially contracted basis set               ... on
Rotationally invariant grid construction     ... off

Total number of grid points                  ...    31129
Total number of batches                      ...      494
Average number of points per batch           ...       63
Average number of grid points per atom       ...     1729
UseSFitting                                  ... on

GRIDX 3
-------
General Integration Accuracy     IntAcc      ... 4.338
Radial Grid Type                 RadialGrid  ... OptM3 with GC (2021)
Angular Grid (max. ang.)         AngularGrid ... 3 (Lebedev-194)
Angular grid pruning method      GridPruning ... 4 (adaptive)
Weight generation scheme         WeightScheme... Becke
Basis function cutoff            BFCut       ... 1.0000e-11
Integration weight cutoff        WCut        ... 1.0000e-14
Angular grids for H and He will be reduced by one unit
Partially contracted basis set               ... on
Rotationally invariant grid construction     ... off

Total number of grid points                  ...    69155
Total number of batches                      ...     1090
Average number of points per batch           ...       63
Average number of grid points per atom       ...     3842
UseSFitting                                  ... on

Time for X-Grid setup             =    1.368 sec


--------------------
CPCM SOLVATION MODEL
--------------------
CPCM parameters:
  Epsilon                                         ...      78.3550
  Refrac                                          ...       1.3328
  Rsolv                                           ...       1.3000
  Surface type                                    ... GAUSSIAN VDW
  Epsilon function type                           ...         CPCM
Solvent:                                     ... WATER
SMD-CDS solvent descriptors:
  Soln                                       ...    1.3328
  Soln25                                     ...    1.3323
  Sola                                       ...    0.0000
  Solb                                       ...    0.0000
  Solg                                       ...    0.0000
  Solc                                       ...    0.0000
  Solh                                       ...    0.0000
Radii:
 Radius for C  used is    3.4960 Bohr (=   1.8500 Ang.)
 Radius for N  used is    3.5716 Bohr (=   1.8900 Ang.)
 Radius for O  used is    2.8724 Bohr (=   1.5200 Ang.)
 Radius for F  used is    3.2692 Bohr (=   1.7300 Ang.)
 Radius for H  used is    2.2677 Bohr (=   1.2000 Ang.)
 Radius for S  used is    4.7054 Bohr (=   2.4900 Ang.)
Calculating surface                               ...        done! (  0.0s)
GEPOL surface points                              ...         1156
GEPOL Volume                                      ...    1364.4470
GEPOL Surface-area                                ...     848.3846
Calculating surface distance matrix               ...        done! (  0.0s)
Performing Cholesky decomposition & store         ...        done! (  0.1s)
Overall time for CPCM initialization              ...                 0.1s
--------------
SCF ITERATIONS
--------------
ITER       Energy         Delta-E        Max-DP      RMS-DP      [F,P]     Damp
               ***  Starting incremental Fock matrix formation  ***
  0   -989.8660281694   0.000000000000 0.38937738  0.00351072  0.2373445 0.7000
  1   -990.0282885841  -0.162260414735 0.26428255  0.00283569  0.1192511 0.7000
                               ***Turning on DIIS***
  2   -990.1007499113  -0.072461327214 1.45631061  0.00972960  0.0639838 0.0000
  3   -990.2248346682  -0.124084756885 0.72176968  0.00397869  0.0550133 0.0000
  4   -990.2439928368  -0.019158168608 0.27467258  0.00159413  0.0124469 0.0000
  5   -990.2451698656  -0.001177028797 0.13756829  0.00084156  0.0061430 0.0000
                      *** Initiating the SOSCF procedure ***
                           *** Shutting down DIIS ***
                      *** Re-Reading the Fockian *** 
                      *** Removing any level shift *** 
ITER      Energy       Delta-E        Grad      Rot      Max-DP    RMS-DP
  6   -990.24540223  -0.0002323602  0.001505  0.001505  0.038347  0.000289
               *** Restarting incremental Fock matrix formation ***
  7   -990.24549214  -0.0000899160  0.000984  0.002416  0.014621  0.000178
  8   -990.24553136  -0.0000392174  0.000343  0.002536  0.010799  0.000167
  9   -990.24553756  -0.0000062046  0.000681  0.000715  0.007754  0.000087
 10   -990.24554434  -0.0000067731  0.000113  0.000192  0.003817  0.000031
 11   -990.24554439  -0.0000000576  0.000093  0.000128  0.004175  0.000022
 12   -990.24554476  -0.0000003660  0.000015  0.000039  0.007051  0.000040
 13   -990.24554476  -0.0000000018  0.000007  0.000031  0.006525  0.000046
 14   -990.24554476  -0.0000000013  0.000005  0.000013  0.006359  0.000042
                  ***Gradient check signals convergence***
              ***Rediagonalizing the Fockian in SOSCF/NRSCF***

               *****************************************************
               *                     SUCCESS                       *
               *           SCF CONVERGED AFTER  15 CYCLES          *
               *****************************************************

Old exchange energy                            =    -28.432525945 Eh
New exchange energy                            =    -28.432534268 Eh
Exchange energy change after final integration =     -0.000008323 Eh
Total energy after final integration           =   -990.245553090 Eh
Final COS-X integration done in                =     3.407 sec

SMD CDS free energy correction energy :                 5.87328     Kcal/mol
Total Energy after SMD CDS correction =              -990.236193424 Eh

----------------
TOTAL SCF ENERGY
----------------

Total Energy       :         -990.23619342 Eh          -26945.69672 eV

Components:
Nuclear Repulsion  :          670.43713737 Eh           18243.52199 eV
Electronic Energy  :        -1660.67333079 Eh          -45189.21871 eV
One Electron Energy:        -2699.86511575 Eh          -73467.06479 eV
Two Electron Energy:         1039.19178496 Eh           28277.84609 eV
Max COSX asymmetry :            0.00000244 Eh               0.00007 eV
CPCM Dielectric    :           -0.12658094 Eh              -3.44444 eV
SMD CDS (Gcds)     :            0.00935967 Eh               0.25469 eV

Virial components:
Potential Energy   :        -1977.46711839 Eh          -53809.61592 eV
Kinetic Energy     :          987.23092496 Eh           26863.91920 eV
Virial Ratio       :            2.00304414


DFT components:
N(Alpha)           :       48.999996212445 electrons
N(Beta)            :       48.999996212445 electrons
N(Total)           :       97.999992424891 electrons
E(XC)              :      -73.337932955648 Eh       
DFET-embed. en.    :        0.000000000000 Eh       
CPCM Solvation Model Properties:
Surface-charge          :            0.94439098
Charge-correction       :           -0.00563954 Eh              -0.15346 eV
Free-energy (cav+disp)  :            0.00935967 Eh               0.25469 eV

---------------
SCF CONVERGENCE
---------------

  Last Energy change         ...   -3.8491e-09  Tolerance :   1.0000e-08
  Last MAX-Density change    ...    3.5527e-15  Tolerance :   1.0000e-07
  Last RMS-Density change    ...    3.8763e-17  Tolerance :   5.0000e-09
  Last Orbital Gradient      ...    1.9538e-06  Tolerance :   1.0000e-05
  Last Orbital Rotation      ...    1.7366e-06  Tolerance :   1.0000e-05

             **** THE GBW FILE WAS UPDATED (structure_opt.gbw) ****
             **** DENSITY structure_opt.scfp WAS UPDATED ****
             **** ENERGY FILE WAS UPDATED (structure_opt.en.tmp) ****
             **** THE GBW FILE WAS UPDATED (structure_opt.gbw) ****
             **** DENSITY structure_opt.scfp WAS UPDATED ****
----------------
ORBITAL ENERGIES
----------------

  NO   OCC          E(Eh)            E(eV) 
   0   2.0000     -88.720341     -2414.2032 
   1   2.0000     -24.793358      -674.6616 
   2   2.0000     -19.275812      -524.5215 
   3   2.0000     -19.244126      -523.6593 
   4   2.0000     -14.670034      -399.1919 
   5   2.0000     -14.435555      -392.8114 
   6   2.0000     -10.437743      -284.0254 
   7   2.0000     -10.364213      -282.0246 
   8   2.0000     -10.338148      -281.3153 
   9   2.0000     -10.321226      -280.8548 
  10   2.0000     -10.290473      -280.0180 
  11   2.0000     -10.236001      -278.5357 
  12   2.0000      -7.916200      -215.4108 
  13   2.0000      -5.879363      -159.9856 
  14   2.0000      -5.871966      -159.7843 
  15   2.0000      -5.871927      -159.7833 
  16   2.0000      -1.396385       -37.9976 
  17   2.0000      -1.348439       -36.6929 
  18   2.0000      -1.151704       -31.3395 
  19   2.0000      -1.109256       -30.1844 
  20   2.0000      -1.008504       -27.4428 
  21   2.0000      -0.943416       -25.6717 
  22   2.0000      -0.874050       -23.7841 
  23   2.0000      -0.836215       -22.7546 
  24   2.0000      -0.796686       -21.6789 
  25   2.0000      -0.769237       -20.9320 
  26   2.0000      -0.706071       -19.2132 
  27   2.0000      -0.686657       -18.6849 
  28   2.0000      -0.669454       -18.2168 
  29   2.0000      -0.665222       -18.1016 
  30   2.0000      -0.661913       -18.0116 
  31   2.0000      -0.633384       -17.2352 
  32   2.0000      -0.620415       -16.8824 
  33   2.0000      -0.615228       -16.7412 
  34   2.0000      -0.563831       -15.3426 
  35   2.0000      -0.537123       -14.6159 
  36   2.0000      -0.527925       -14.3656 
  37   2.0000      -0.527891       -14.3646 
  38   2.0000      -0.494527       -13.4568 
  39   2.0000      -0.494106       -13.4453 
  40   2.0000      -0.456296       -12.4164 
  41   2.0000      -0.432697       -11.7743 
  42   2.0000      -0.421863       -11.4795 
  43   2.0000      -0.416503       -11.3336 
  44   2.0000      -0.407967       -11.1014 
  45   2.0000      -0.390818       -10.6347 
  46   2.0000      -0.384932       -10.4745 
  47   2.0000      -0.259057        -7.0493 
  48   2.0000      -0.259007        -7.0480 
  49   0.0000      -0.064936        -1.7670 
  50   0.0000       0.022679         0.6171 
  51   0.0000       0.051614         1.4045 
  52   0.0000       0.055461         1.5092 
  53   0.0000       0.059589         1.6215 
  54   0.0000       0.071306         1.9403 
  55   0.0000       0.075665         2.0589 
  56   0.0000       0.088941         2.4202 
  57   0.0000       0.089883         2.4459 
  58   0.0000       0.095746         2.6054 
  59   0.0000       0.107981         2.9383 
  60   0.0000       0.110695         3.0122 
  61   0.0000       0.127174         3.4606 
  62   0.0000       0.129081         3.5125 
  63   0.0000       0.132775         3.6130 
  64   0.0000       0.137227         3.7341 
  65   0.0000       0.143958         3.9173 
  66   0.0000       0.153775         4.1844 
  67   0.0000       0.157144         4.2761 
  68   0.0000       0.165146         4.4939 
  69   0.0000       0.166187         4.5222 
  70   0.0000       0.171442         4.6652 
  71   0.0000       0.172121         4.6836 
  72   0.0000       0.179078         4.8730 
  73   0.0000       0.181628         4.9424 
  74   0.0000       0.186124         5.0647 
  75   0.0000       0.191055         5.1989 
  76   0.0000       0.194715         5.2985 
  77   0.0000       0.197440         5.3726 
  78   0.0000       0.199936         5.4405 
  79   0.0000       0.206377         5.6158 
  80   0.0000       0.214726         5.8430 
  81   0.0000       0.218083         5.9343 
  82   0.0000       0.230125         6.2620 
  83   0.0000       0.230540         6.2733 
  84   0.0000       0.237265         6.4563 
  85   0.0000       0.248719         6.7680 
  86   0.0000       0.252718         6.8768 
  87   0.0000       0.260691         7.0938 
  88   0.0000       0.265007         7.2112 
  89   0.0000       0.268763         7.3134 
  90   0.0000       0.276556         7.5255 
  91   0.0000       0.278114         7.5679 
  92   0.0000       0.282225         7.6797 
  93   0.0000       0.284220         7.7340 
  94   0.0000       0.289466         7.8768 
  95   0.0000       0.298693         8.1278 
  96   0.0000       0.301826         8.2131 
  97   0.0000       0.313468         8.5299 
  98   0.0000       0.316773         8.6198 
  99   0.0000       0.321204         8.7404 
 100   0.0000       0.328520         8.9395 
 101   0.0000       0.341973         9.3056 
 102   0.0000       0.349850         9.5199 
 103   0.0000       0.359882         9.7929 
 104   0.0000       0.362966         9.8768 
 105   0.0000       0.365576         9.9478 
 106   0.0000       0.374832        10.1997 
 107   0.0000       0.383863        10.4454 
 108   0.0000       0.397370        10.8130 
 109   0.0000       0.404189        10.9985 
 110   0.0000       0.408653        11.1200 
 111   0.0000       0.411355        11.1935 
 112   0.0000       0.419302        11.4098 
 113   0.0000       0.426606        11.6086 
 114   0.0000       0.440938        11.9985 
 115   0.0000       0.452761        12.3202 
 116   0.0000       0.460290        12.5251 
 117   0.0000       0.462811        12.5937 
 118   0.0000       0.483316        13.1517 
 119   0.0000       0.486274        13.2322 
 120   0.0000       0.493908        13.4399 
 121   0.0000       0.505114        13.7449 
 122   0.0000       0.527815        14.3626 
 123   0.0000       0.529517        14.4089 
 124   0.0000       0.531944        14.4749 
 125   0.0000       0.553736        15.0679 
 126   0.0000       0.584506        15.9052 
 127   0.0000       0.610271        16.6063 
 128   0.0000       0.617785        16.8108 
 129   0.0000       0.620495        16.8845 
 130   0.0000       0.632815        17.2198 
 131   0.0000       0.648379        17.6433 
 132   0.0000       0.649564        17.6755 
 133   0.0000       0.665047        18.0969 
 134   0.0000       0.671152        18.2630 
 135   0.0000       0.702019        19.1029 
 136   0.0000       0.703984        19.1564 
 137   0.0000       0.728277        19.8174 
 138   0.0000       0.745673        20.2908 
 139   0.0000       0.770586        20.9687 
 140   0.0000       0.772803        21.0290 
 141   0.0000       0.779194        21.2029 
 142   0.0000       0.811338        22.0776 
 143   0.0000       0.829460        22.5707 
 144   0.0000       0.835696        22.7405 
 145   0.0000       0.853874        23.2351 
 146   0.0000       0.859663        23.3926 
 147   0.0000       0.876214        23.8430 
 148   0.0000       0.900055        24.4917 
 149   0.0000       0.912505        24.8305 
 150   0.0000       0.920297        25.0426 
 151   0.0000       0.935670        25.4609 
 152   0.0000       0.953922        25.9575 
 153   0.0000       0.956946        26.0398 
 154   0.0000       0.968166        26.3451 
 155   0.0000       0.977199        26.5909 
 156   0.0000       0.978573        26.6283 
 157   0.0000       0.985205        26.8088 
 158   0.0000       1.002879        27.2897 
 159   0.0000       1.004284        27.3279 
 160   0.0000       1.006447        27.3868 
 161   0.0000       1.035737        28.1838 
 162   0.0000       1.044001        28.4087 
 163   0.0000       1.064574        28.9685 
 164   0.0000       1.079488        29.3744 
 165   0.0000       1.082368        29.4527 
 166   0.0000       1.083670        29.4882 
 167   0.0000       1.139677        31.0122 
 168   0.0000       1.144468        31.1426 
 169   0.0000       1.156036        31.4574 
 170   0.0000       1.172777        31.9129 
 171   0.0000       1.194677        32.5088 
 172   0.0000       1.198650        32.6169 
 173   0.0000       1.214667        33.0528 
 174   0.0000       1.249480        34.0001 
 175   0.0000       1.260318        34.2950 
 176   0.0000       1.277628        34.7660 
 177   0.0000       1.279219        34.8093 
 178   0.0000       1.281799        34.8795 
 179   0.0000       1.292902        35.1816 
 180   0.0000       1.298180        35.3253 
 181   0.0000       1.356477        36.9116 
 182   0.0000       1.393900        37.9299 
 183   0.0000       1.406050        38.2606 
 184   0.0000       1.474298        40.1177 
 185   0.0000       1.506979        41.0070 
 186   0.0000       1.544528        42.0287 
 187   0.0000       1.589533        43.2534 
 188   0.0000       1.590170        43.2707 
 189   0.0000       1.591127        43.2968 
 190   0.0000       1.618780        44.0492 
 191   0.0000       1.633859        44.4596 
 192   0.0000       1.655531        45.0493 
 193   0.0000       1.658313        45.1250 
 194   0.0000       1.693086        46.0712 
 195   0.0000       1.696902        46.1751 
 196   0.0000       1.706944        46.4483 
 197   0.0000       1.715751        46.6880 
 198   0.0000       1.749482        47.6058 
 199   0.0000       1.761573        47.9348 
 200   0.0000       1.786975        48.6261 
 201   0.0000       1.809700        49.2444 
 202   0.0000       1.811717        49.2993 
 203   0.0000       1.812505        49.3208 
 204   0.0000       1.843592        50.1667 
 205   0.0000       1.855701        50.4962 
 206   0.0000       1.870173        50.8900 
 207   0.0000       1.911033        52.0019 
 208   0.0000       1.934168        52.6314 
 209   0.0000       1.950192        53.0674 
 210   0.0000       1.971300        53.6418 
 211   0.0000       1.975331        53.7515 
 212   0.0000       1.990785        54.1720 
 213   0.0000       2.013198        54.7819 
 214   0.0000       2.032150        55.2976 
 215   0.0000       2.046505        55.6882 
 216   0.0000       2.058306        56.0094 
 217   0.0000       2.112277        57.4780 
 218   0.0000       2.140622        58.2493 
 219   0.0000       2.148547        58.4649 
 220   0.0000       2.171570        59.0914 
 221   0.0000       2.175126        59.1882 
 222   0.0000       2.176653        59.2297 
 223   0.0000       2.208680        60.1012 
 224   0.0000       2.292696        62.3874 
 225   0.0000       2.324106        63.2422 
 226   0.0000       2.332023        63.4576 
 227   0.0000       2.334971        63.5378 
 228   0.0000       2.402232        65.3681 
 229   0.0000       2.429680        66.1149 
 230   0.0000       2.493605        67.8544 
 231   0.0000       2.565645        69.8147 
 232   0.0000       2.593641        70.5766 
 233   0.0000       2.595917        70.6385 
 234   0.0000       2.604684        70.8771 
 235   0.0000       2.627292        71.4923 
 236   0.0000       2.659877        72.3789 
 237   0.0000       2.662375        72.4469 
 238   0.0000       2.673303        72.7443 
 239   0.0000       2.675007        72.7906 
 240   0.0000       2.695744        73.3549 
 241   0.0000       2.766688        75.2854 
 242   0.0000       2.786998        75.8381 
 243   0.0000       2.838116        77.2291 
 244   0.0000       2.842487        77.3480 
 245   0.0000       2.858092        77.7727 
 246   0.0000       2.867225        78.0212 
 247   0.0000       2.885177        78.5097 
 248   0.0000       2.893652        78.7403 
 249   0.0000       2.901754        78.9607 
 250   0.0000       2.931447        79.7687 
 251   0.0000       2.939042        79.9754 
 252   0.0000       2.960118        80.5489 
 253   0.0000       2.977954        81.0343 
 254   0.0000       2.988012        81.3079 
 255   0.0000       3.001807        81.6833 
 256   0.0000       3.016466        82.0822 
 257   0.0000       3.098875        84.3247 
 258   0.0000       3.153201        85.8030 
 259   0.0000       3.188660        86.7679 
 260   0.0000       3.268993        88.9538 
 261   0.0000       3.307617        90.0048 
 262   0.0000       3.308601        90.0316 
 263   0.0000       3.344365        91.0048 
 264   0.0000       3.369779        91.6963 
 265   0.0000       3.455317        94.0240 
 266   0.0000       3.497114        95.1613 
 267   0.0000       3.558752        96.8386 
 268   0.0000       3.594651        97.8154 
 269   0.0000       3.680844       100.1609 
 270   0.0000       3.703502       100.7774 
 271   0.0000       3.753825       102.1468 
 272   0.0000       3.853376       104.8557 
 273   0.0000       3.883959       105.6879 
 274   0.0000       3.888572       105.8134 
 275   0.0000       3.891865       105.9030 
 276   0.0000       3.903711       106.2254 
 277   0.0000       3.924476       106.7904 
 278   0.0000       4.011502       109.1585 
 279   0.0000       4.059565       110.4664 
 280   0.0000       4.121917       112.1631 
 281   0.0000       4.144086       112.7663 
 282   0.0000       4.169424       113.4558 
 283   0.0000       4.408012       119.9481 
 284   0.0000       4.478861       121.8760 
 285   0.0000       4.503731       122.5528 
 286   0.0000       4.760890       129.5504 
 287   0.0000       4.942843       134.5016 
 288   0.0000       5.071100       137.9916 
 289   0.0000       5.099563       138.7662 
 290   0.0000       5.190535       141.2416 
 291   0.0000       5.218984       142.0158 
 292   0.0000       5.315699       144.6475 
 293   0.0000       5.698877       155.0743 
 294   0.0000       6.130202       166.8113 
 295   0.0000       6.407919       174.3683 
 296   0.0000       6.547204       178.1585 
 297   0.0000       6.840788       186.1473 
 298   0.0000       7.983648       217.2461 
 299   0.0000      17.547031       477.4790 
 300   0.0000      17.551828       477.6095 
 301   0.0000      17.645184       480.1499 
 302   0.0000      23.650680       643.5677 
 303   0.0000      23.891942       650.1328 
 304   0.0000      23.984295       652.6459 
 305   0.0000      24.031489       653.9300 
 306   0.0000      24.071703       655.0244 
 307   0.0000      24.181367       658.0084 
 308   0.0000      35.374888       962.5996 
 309   0.0000      35.657603       970.2927 
 310   0.0000      49.899512      1357.8347 
 311   0.0000      49.963440      1359.5743 
 312   0.0000      66.793635      1817.5472 
 313   0.0000     188.973867      5142.2403 

--------------------
FRAGMENT INFORMATION
--------------------
Fragment  1:    0   1   2   3   4   5 
Fragment  2:    6   7   8   9  10  11  12 
Fragment  3:   13  14  15  16 
Fragment  4:   17 


                    ********************************
                    * MULLIKEN POPULATION ANALYSIS *
                    ********************************

-------------------------
MULLIKEN FRAGMENT CHARGES
-------------------------
 Fragment   0 :  -0.437122
 Fragment   1 :   0.437018
 Fragment   2 :  -0.029928
 Fragment   3 :  -0.969967
Sum of fragment charges:   -1.0000000

---------------------------------
MULLIKEN FRAGMENT OVERLAP CHARGES
---------------------------------
                  0          1          2          3    
      0      19.133818   0.606873   0.000086  -0.000371
      1       0.606873  35.009285   0.001672  -0.001484
      2       0.000086   0.001672  11.638310  -0.683650
      3      -0.000371  -0.001484  -0.683650  17.312720

-----------------------
MULLIKEN ATOMIC CHARGES
-----------------------
   0 C :   -0.065508
   1 N :   -0.196427
   2 C :   -0.220944
   3 C :   -0.335171
   4 C :    0.443936
   5 C :   -0.063009
   6 N :   -0.077147
   7 O :   -0.050180
   8 O :   -0.239597
   9 F :   -0.100531
  10 H :    0.295781
  11 H :    0.282319
  12 H :    0.326373
  13 C :   -0.415621
  14 H :    0.128027
  15 H :    0.129860
  16 H :    0.127805
  17 S :   -0.969967
Sum of atomic charges:   -1.0000000

--------------------------------
MULLIKEN REDUCED ORBITAL CHARGES
--------------------------------
  0 C s       :     3.308267  s :     3.308267
      pz      :     0.672895  p :     2.596802
      px      :     0.980640
      py      :     0.943266
      dz2     :     0.052753  d :     0.160439
      dxz     :     0.048816
      dyz     :     0.028440
      dx2y2   :     0.013777
      dxy     :     0.016653
  1 N s       :     3.626593  s :     3.626593
      pz      :     1.141359  p :     3.539304
      px      :     1.233921
      py      :     1.164023
      dz2     :     0.008169  d :     0.030530
      dxz     :     0.007243
      dyz     :     0.004753
      dx2y2   :     0.005503
      dxy     :     0.004861
  2 C s       :     3.290912  s :     3.290912
      pz      :     0.806944  p :     2.845877
      px      :     1.184649
      py      :     0.854284
      dz2     :     0.023580  d :     0.084155
      dxz     :     0.032200
      dyz     :     0.014797
      dx2y2   :     0.007225
      dxy     :     0.006353
  3 C s       :     3.256469  s :     3.256469
      pz      :     1.162511  p :     3.025544
      px      :     0.892197
      py      :     0.970837
      dz2     :     0.015300  d :     0.053157
      dxz     :     0.017415
      dyz     :     0.005093
      dx2y2   :     0.008208
      dxy     :     0.007141
  4 C s       :     2.500328  s :     2.500328
      pz      :     0.907402  p :     2.998642
      px      :     1.245646
      py      :     0.845594
      dz2     :     0.016549  d :     0.057095
      dxz     :     0.015855
      dyz     :     0.010571
      dx2y2   :     0.007214
      dxy     :     0.006905
  5 C s       :     3.301317  s :     3.301317
      pz      :     1.066689  p :     2.688550
      px      :     0.493547
      py      :     1.128315
      dz2     :     0.013629  d :     0.073141
      dxz     :     0.029768
      dyz     :     0.010346
      dx2y2   :     0.011215
      dxy     :     0.008183
  6 N s       :     3.591888  s :     3.591888
      pz      :     1.060375  p :     3.376262
      px      :     1.214937
      py      :     1.100950
      dz2     :     0.027718  d :     0.108998
      dxz     :     0.039360
      dyz     :     0.023079
      dx2y2   :     0.008550
      dxy     :     0.010291
  7 O s       :     3.775359  s :     3.775359
      pz      :     1.026865  p :     4.256125
      px      :     1.828395
      py      :     1.400865
      dz2     :     0.009710  d :     0.018696
      dxz     :     0.003512
      dyz     :     0.005305
      dx2y2   :     0.000102
      dxy     :     0.000067
  8 O s       :     3.825480  s :     3.825480
      pz      :     1.624657  p :     4.402003
      px      :     1.218541
      py      :     1.558805
      dz2     :     0.001059  d :     0.012114
      dxz     :     0.004900
      dyz     :     0.000879
      dx2y2   :     0.003118
      dxy     :     0.002158
  9 F s       :     3.917413  s :     3.917413
      pz      :     1.388891  p :     5.177786
      px      :     1.914736
      py      :     1.874159
      dz2     :     0.003097  d :     0.005332
      dxz     :     0.000998
      dyz     :     0.001201
      dx2y2   :     0.000027
      dxy     :     0.000009
 10 H s       :     0.680365  s :     0.680365
      pz      :     0.005466  p :     0.023854
      px      :     0.014098
      py      :     0.004289
 11 H s       :     0.692713  s :     0.692713
      pz      :     0.016379  p :     0.024968
      px      :     0.003655
      py      :     0.004934
 12 H s       :     0.648108  s :     0.648108
      pz      :     0.007740  p :     0.025519
      px      :     0.013376
      py      :     0.004403
 13 C s       :     3.277322  s :     3.277322
      pz      :     1.050219  p :     3.085669
      px      :     0.974831
      py      :     1.060619
      dz2     :     0.014130  d :     0.052630
      dxz     :     0.009200
      dyz     :     0.005056
      dx2y2   :     0.009094
      dxy     :     0.015150
 14 H s       :     0.849294  s :     0.849294
      pz      :     0.006731  p :     0.022679
      px      :     0.007032
      py      :     0.008916
 15 H s       :     0.847385  s :     0.847385
      pz      :     0.013077  p :     0.022755
      px      :     0.004672
      py      :     0.005005
 16 H s       :     0.849505  s :     0.849505
      pz      :     0.004934  p :     0.022690
      px      :     0.006194
      py      :     0.011562
 17 S s       :     6.017860  s :     6.017860
      pz      :     3.889741  p :    10.920718
      px      :     3.035746
      py      :     3.995231
      dz2     :     0.004188  d :     0.031390
      dxz     :     0.008636
      dyz     :     0.000331
      dx2y2   :     0.014023
      dxy     :     0.004212


                     *******************************
                     * LOEWDIN POPULATION ANALYSIS *
                     *******************************

------------------------
LOEWDIN FRAGMENT CHARGES
------------------------
 Fragment   0 :   0.056513
 Fragment   1 :  -0.059905
 Fragment   2 :  -0.354637
 Fragment   3 :  -0.641972

----------------------------
LOEWDIN FRAGMENT BOND ORDERS
----------------------------
                  0          1          2          3    
      0      56.961841   6.779435   0.000952   0.004567
      1       6.779435  43.788724   0.000427   0.002916
      2       0.000952   0.000427  15.417277   1.743410
      3       0.004567   0.002916   1.743410  16.641972

----------------------
LOEWDIN ATOMIC CHARGES
----------------------
   0 C :    0.111560
   1 N :   -0.111344
   2 C :    0.075935
   3 C :   -0.033653
   4 C :    0.077856
   5 C :   -0.063841
   6 N :    0.241428
   7 O :   -0.154392
   8 O :   -0.339147
   9 F :   -0.078073
  10 H :    0.085462
  11 H :    0.084681
  12 H :    0.100137
  13 C :   -0.358088
  14 H :    0.001465
  15 H :    0.000804
  16 H :    0.001182
  17 S :   -0.641972

-------------------------------
LOEWDIN REDUCED ORBITAL CHARGES
-------------------------------
  0 C s       :     2.743786  s :     2.743786
      pz      :     0.849334  p :     2.815509
      px      :     1.080406
      py      :     0.885769
      dz2     :     0.112534  d :     0.329145
      dxz     :     0.100719
      dyz     :     0.050385
      dx2y2   :     0.033876
      dxy     :     0.031631
  1 N s       :     3.151332  s :     3.151332
      pz      :     1.301073  p :     3.903163
      px      :     1.416923
      py      :     1.185168
      dz2     :     0.017389  d :     0.056850
      dxz     :     0.015727
      dyz     :     0.007782
      dx2y2   :     0.009552
      dxy     :     0.006400
  2 C s       :     2.786728  s :     2.786728
      pz      :     1.033070  p :     2.955514
      px      :     1.098540
      py      :     0.823904
      dz2     :     0.060311  d :     0.181823
      dxz     :     0.069042
      dyz     :     0.027965
      dx2y2   :     0.014010
      dxy     :     0.010495
  3 C s       :     2.781316  s :     2.781316
      pz      :     1.081299  p :     3.127989
      px      :     1.092014
      py      :     0.954677
      dz2     :     0.034118  d :     0.124348
      dxz     :     0.045069
      dyz     :     0.008013
      dx2y2   :     0.022213
      dxy     :     0.014936
  4 C s       :     2.779184  s :     2.779184
      pz      :     1.065832  p :     3.014651
      px      :     1.108373
      py      :     0.840446
      dz2     :     0.040913  d :     0.128309
      dxz     :     0.039161
      dyz     :     0.021261
      dx2y2   :     0.015051
      dxy     :     0.011923
  5 C s       :     2.757925  s :     2.757925
      pz      :     1.088431  p :     3.125583
      px      :     0.957163
      py      :     1.079989
      dz2     :     0.039905  d :     0.180333
      dxz     :     0.071782
      dyz     :     0.019847
      dx2y2   :     0.031422
      dxy     :     0.017377
  6 N s       :     3.052087  s :     3.052087
      pz      :     1.205957  p :     3.500120
      px      :     1.215123
      py      :     1.079040
      dz2     :     0.060436  d :     0.206365
      dxz     :     0.076185
      dyz     :     0.035698
      dx2y2   :     0.017514
      dxy     :     0.016532
  7 O s       :     3.581208  s :     3.581208
      pz      :     1.283746  p :     4.540874
      px      :     1.838864
      py      :     1.418264
      dz2     :     0.020435  d :     0.032309
      dxz     :     0.005157
      dyz     :     0.006528
      dx2y2   :     0.000119
      dxy     :     0.000071
  8 O s       :     3.667357  s :     3.667357
      pz      :     1.709915  p :     4.651310
      px      :     1.369895
      py      :     1.571501
      dz2     :     0.001545  d :     0.020480
      dxz     :     0.009263
      dyz     :     0.001173
      dx2y2   :     0.005711
      dxy     :     0.002789
  9 F s       :     3.714953  s :     3.714953
      pz      :     1.535221  p :     5.355750
      px      :     1.934276
      py      :     1.886252
      dz2     :     0.004765  d :     0.007370
      dxz     :     0.001184
      dyz     :     0.001375
      dx2y2   :     0.000037
      dxy     :     0.000009
 10 H s       :     0.844095  s :     0.844095
      pz      :     0.016676  p :     0.070443
      px      :     0.042358
      py      :     0.011409
 11 H s       :     0.842868  s :     0.842868
      pz      :     0.047841  p :     0.072452
      px      :     0.011207
      py      :     0.013404
 12 H s       :     0.826639  s :     0.826639
      pz      :     0.023099  p :     0.073224
      px      :     0.038703
      py      :     0.011422
 13 C s       :     2.858422  s :     2.858422
      pz      :     1.121800  p :     3.392825
      px      :     1.152926
      py      :     1.118098
      dz2     :     0.028235  d :     0.106842
      dxz     :     0.019086
      dyz     :     0.009182
      dx2y2   :     0.020195
      dxy     :     0.030143
 14 H s       :     0.926871  s :     0.926871
      pz      :     0.020402  p :     0.071664
      px      :     0.023333
      py      :     0.027929
 15 H s       :     0.927316  s :     0.927316
      pz      :     0.042453  p :     0.071880
      px      :     0.014787
      py      :     0.014640
 16 H s       :     0.927050  s :     0.927050
      pz      :     0.014468  p :     0.071768
      px      :     0.020388
      py      :     0.036911
 17 S s       :     5.612198  s :     5.612198
      pz      :     3.857551  p :    10.992615
      px      :     3.198324
      py      :     3.936739
      dz2     :     0.004964  d :     0.037159
      dxz     :     0.010168
      dyz     :     0.000362
      dx2y2   :     0.016940
      dxy     :     0.004725


                      *****************************
                      * MAYER POPULATION ANALYSIS *
                      *****************************

  NA   - Mulliken gross atomic population
  ZA   - Total nuclear charge
  QA   - Mulliken gross atomic charge
  VA   - Mayer's total valence
  BVA  - Mayer's bonded valence
  FA   - Mayer's free valence

  ATOM       NA         ZA         QA         VA         BVA        FA
  0 C      6.0655     6.0000    -0.0655     4.4053     4.4053    -0.0000
  1 N      7.1964     7.0000    -0.1964     2.6857     2.6857    -0.0000
  2 C      6.2209     6.0000    -0.2209     4.0726     4.0726     0.0000
  3 C      6.3352     6.0000    -0.3352     4.4838     4.4838    -0.0000
  4 C      5.5561     6.0000     0.4439     4.1218     4.1218    -0.0000
  5 C      6.0630     6.0000    -0.0630     3.3325     3.3325    -0.0000
  6 N      7.0771     7.0000    -0.0771     3.9322     3.9322     0.0000
  7 O      8.0502     8.0000    -0.0502     2.1940     2.1940     0.0000
  8 O      8.2396     8.0000    -0.2396     1.9967     1.9967     0.0000
  9 F      9.1005     9.0000    -0.1005     0.9666     0.9666     0.0000
 10 H      0.7042     1.0000     0.2958     0.8782     0.8782    -0.0000
 11 H      0.7177     1.0000     0.2823     0.9039     0.9039    -0.0000
 12 H      0.6736     1.0000     0.3264     0.8345     0.8345     0.0000
 13 C      6.4156     6.0000    -0.4156     3.5681     3.5681    -0.0000
 14 H      0.8720     1.0000     0.1280     0.9428     0.9428     0.0000
 15 H      0.8701     1.0000     0.1299     0.9315     0.9315     0.0000
 16 H      0.8722     1.0000     0.1278     0.9421     0.9421    -0.0000
 17 S     16.9700    16.0000    -0.9700     0.5956     0.5956     0.0000

  Mayer bond orders larger than 0.100000
B(  0-C ,  1-N ) :   1.2777 B(  0-C ,  2-C ) :   0.1785 B(  0-C ,  3-C ) :   0.1362 
B(  0-C ,  4-C ) :   0.3305 B(  0-C ,  5-C ) :   1.1907 B(  0-C ,  6-N ) :  -0.1873 
B(  0-C ,  9-F ) :   1.4866 B(  1-N ,  2-C ) :   1.1531 B(  1-N ,  5-C ) :   0.1828 
B(  2-C ,  3-C ) :   1.7027 B(  2-C ,  5-C ) :   0.1173 B(  2-C , 10-H ) :   0.8578 
B(  3-C ,  4-C ) :   1.4741 B(  3-C ,  8-O ) :   0.1317 B(  3-C , 11-H ) :   0.8427 
B(  4-C ,  5-C ) :   1.5949 B(  4-C ,  6-N ) :  -0.1482 B(  4-C ,  8-O ) :   0.1526 
B(  4-C ,  9-F ) :  -0.1364 B(  4-C , 12-H ) :   0.7531 B(  5-C ,  6-N ) :   0.7650 
B(  5-C ,  7-O ) :  -0.1017 B(  5-C ,  8-O ) :  -0.1531 B(  5-C ,  9-F ) :  -0.4344 
B(  5-C , 12-H ) :   0.1291 B(  6-N ,  7-O ) :   1.8537 B(  6-N ,  8-O ) :   1.6494 
B(  7-O ,  8-O ) :   0.2619 B( 13-C , 14-H ) :   0.9839 B( 13-C , 15-H ) :   0.9763 
B( 13-C , 16-H ) :   0.9829 B( 13-C , 17-S ) :   0.6270 

-------
TIMINGS
-------

Total SCF time: 0 days 0 hours 0 min 38 sec 

Total time                  ....      38.291 sec
Sum of individual times     ....      37.232 sec  ( 97.2%)

Fock matrix formation       ....      34.021 sec  ( 88.8%)
  Split-RI-J                ....       2.497 sec  (  7.3% of F)
  Chain of spheres X        ....      21.797 sec  ( 64.1% of F)
  XC integration            ....       5.352 sec  ( 15.7% of F)
    Basis function eval.    ....       0.421 sec  (  7.9% of XC)
    Density eval.           ....       0.745 sec  ( 13.9% of XC)
[...]
 290   0.0000       5.205576       141.6509 
 291   0.0000       5.281446       143.7154 
 292   0.0000       5.371282       146.1600 
 293   0.0000       5.849664       159.1775 
 294   0.0000       6.340083       172.5224 
 295   0.0000       6.416676       174.6066 
 296   0.0000       6.559339       178.4887 
 297   0.0000       6.862056       186.7260 
 298   0.0000       7.983646       217.2460 
 299   0.0000      17.547142       477.4820 
 300   0.0000      17.551894       477.6113 
 301   0.0000      17.645838       480.1677 
 302   0.0000      23.701809       644.9590 
 303   0.0000      23.955970       651.8751 
 304   0.0000      24.020224       653.6235 
 305   0.0000      24.031576       653.9324 
 306   0.0000      24.134646       656.7371 
 307   0.0000      24.245584       659.7559 
 308   0.0000      35.451310       964.6792 
 309   0.0000      35.737509       972.4671 
 310   0.0000      49.923353      1358.4835 
 311   0.0000      50.030920      1361.4106 
 312   0.0000      66.807544      1817.9257 
 313   0.0000     188.973872      5142.2405 

--------------------
FRAGMENT INFORMATION
--------------------
Fragment  1:    0   1   2   3   4   5 
Fragment  2:    6   7   8   9  10  11  12 
Fragment  3:   13  14  15  16 
Fragment  4:   17 


                    ********************************
                    * MULLIKEN POPULATION ANALYSIS *
                    ********************************

-------------------------
MULLIKEN FRAGMENT CHARGES
-------------------------
 Fragment   0 :  -0.473571
 Fragment   1 :   0.473267
 Fragment   2 :  -0.030037
 Fragment   3 :  -0.969659
Sum of fragment charges:   -1.0000000

---------------------------------
MULLIKEN FRAGMENT OVERLAP CHARGES
---------------------------------
                  0          1          2          3    
      0      15.805333   0.497091   0.000051  -0.000672
      1       0.497091  35.081442   0.001503  -0.001497
      2       0.000051   0.001503  11.638494  -0.678168
      3      -0.000672  -0.001497  -0.678168  17.309827

-----------------------
MULLIKEN ATOMIC CHARGES
-----------------------
   0 C :   -0.039555
   1 N :   -0.189554
   2 C :   -0.196536
   3 C :   -0.421428
   4 C :    0.544008
   5 C :   -0.170506
   6 N :   -0.015588
   7 O :   -0.161654
   8 O :   -0.117813
   9 F :   -0.117597
  10 H :    0.282625
  11 H :    0.280012
  12 H :    0.323282
  13 C :   -0.415683
  14 H :    0.128119
  15 H :    0.129729
  16 H :    0.127798
  17 S :   -0.969659
Sum of atomic charges:   -1.0000000

--------------------------------
MULLIKEN REDUCED ORBITAL CHARGES
--------------------------------
  0 C s       :     3.269037  s :     3.269037
      pz      :     0.666431  p :     2.600617
      px      :     0.985851
      py      :     0.948335
      dz2     :     0.057910  d :     0.169901
      dxz     :     0.049561
      dyz     :     0.029545
      dx2y2   :     0.014694
      dxy     :     0.018191
  1 N s       :     3.607763  s :     3.607763
      pz      :     1.138357  p :     3.547262
      px      :     1.254628
      py      :     1.154277
      dz2     :     0.008429  d :     0.034529
      dxz     :     0.009089
      dyz     :     0.005305
      dx2y2   :     0.005935
      dxy     :     0.005771
  2 C s       :     3.218135  s :     3.218135
      pz      :     0.822566  p :     2.889408
      px      :     1.193616
      py      :     0.873226
      dz2     :     0.024816  d :     0.088993
      dxz     :     0.033975
      dyz     :     0.015776
      dx2y2   :     0.007804
      dxy     :     0.006621
  3 C s       :     3.320390  s :     3.320390
      pz      :     1.167009  p :     3.045394
      px      :     0.905285
      py      :     0.973100
      dz2     :     0.015993  d :     0.055644
      dxz     :     0.018279
      dyz     :     0.005674
      dx2y2   :     0.008186
      dxy     :     0.007512
  4 C s       :     2.367862  s :     2.367862
      pz      :     0.930910  p :     3.028472
      px      :     1.248708
      py      :     0.848854
      dz2     :     0.017576  d :     0.059658
      dxz     :     0.015660
      dyz     :     0.011495
      dx2y2   :     0.007860
      dxy     :     0.007067
  5 C s       :     3.365093  s :     3.365093
      pz      :     1.085421  p :     2.731883
      px      :     0.513137
      py      :     1.133325
      dz2     :     0.012874  d :     0.073531
      dxz     :     0.031393
      dyz     :     0.010275
      dx2y2   :     0.010812
      dxy     :     0.008176
  6 N s       :     3.489950  s :     3.489950
      pz      :     1.044890  p :     3.386713
      px      :     1.234370
      py      :     1.107453
      dz2     :     0.037435  d :     0.138925
      dxz     :     0.045629
      dyz     :     0.028612
      dx2y2   :     0.012116
      dxy     :     0.015133
  7 O s       :     3.801435  s :     3.801435
      pz      :     1.021629  p :     4.342056
      px      :     1.841856
      py      :     1.478571
      dz2     :     0.009812  d :     0.018164
      dxz     :     0.003212
      dyz     :     0.005011
      dx2y2   :     0.000084
      dxy     :     0.000045
  8 O s       :     3.784448  s :     3.784448
      pz      :     1.570070  p :     4.313215
      px      :     1.312133
      py      :     1.431011
      dz2     :     0.002343  d :     0.020150
      dxz     :     0.007262
      dyz     :     0.001945
      dx2y2   :     0.004422
      dxy     :     0.004178
  9 F s       :     3.916654  s :     3.916654
      pz      :     1.400489  p :     5.195714
      px      :     1.915946
      py      :     1.879280
      dz2     :     0.003036  d :     0.005229
      dxz     :     0.000981
      dyz     :     0.001170
      dx2y2   :     0.000030
      dxy     :     0.000011
 10 H s       :     0.694112  s :     0.694112
      pz      :     0.004781  p :     0.023263
      px      :     0.014171
      py      :     0.004311
 11 H s       :     0.694794  s :     0.694794
      pz      :     0.016451  p :     0.025194
      px      :     0.003757
      py      :     0.004985
 12 H s       :     0.650879  s :     0.650879
      pz      :     0.007091  p :     0.025839
      px      :     0.014292
      py      :     0.004457
 13 C s       :     3.277350  s :     3.277350
      pz      :     1.050488  p :     3.085705
      px      :     0.974531
      py      :     1.060685
      dz2     :     0.014041  d :     0.052628
      dxz     :     0.009228
      dyz     :     0.005110
      dx2y2   :     0.009122
      dxy     :     0.015127
 14 H s       :     0.849179  s :     0.849179
      pz      :     0.006766  p :     0.022702
      px      :     0.007000
      py      :     0.008935
 15 H s       :     0.847540  s :     0.847540
      pz      :     0.013066  p :     0.022731
      px      :     0.004669
      py      :     0.004996
 16 H s       :     0.849515  s :     0.849515
      pz      :     0.004942  p :     0.022687
      px      :     0.006195
      py      :     0.011550
 17 S s       :     6.016824  s :     6.016824
      pz      :     3.893673  p :    10.921446
      px      :     3.032532
      py      :     3.995241
      dz2     :     0.004233  d :     0.031389
      dxz     :     0.008492
      dyz     :     0.000317
      dx2y2   :     0.014120
      dxy     :     0.004226


                     *******************************
                     * LOEWDIN POPULATION ANALYSIS *
                     *******************************

------------------------
LOEWDIN FRAGMENT CHARGES
------------------------
 Fragment   0 :   0.030416
 Fragment   1 :  -0.033769
 Fragment   2 :  -0.354629
 Fragment   3 :  -0.642019

----------------------------
LOEWDIN FRAGMENT BOND ORDERS
----------------------------
                  0          1          2          3    
      0      57.200378   6.726144   0.000960   0.004617
      1       6.726144  44.210630   0.000428   0.002924
      2       0.000960   0.000428  15.417247   1.743463
      3       0.004617   0.002924   1.743463  16.642019

----------------------
LOEWDIN ATOMIC CHARGES
----------------------
   0 C :    0.082256
   1 N :   -0.081436
   2 C :    0.055112
   3 C :   -0.033922
   4 C :    0.073044
   5 C :   -0.064637
   6 N :    0.202642
   7 O :   -0.220195
   8 O :   -0.194222
   9 F :   -0.088852
  10 H :    0.081549
  11 H :    0.085840
  12 H :    0.099468
  13 C :   -0.358084
  14 H :    0.001312
  15 H :    0.000951
  16 H :    0.001192
  17 S :   -0.642019

-------------------------------
LOEWDIN REDUCED ORBITAL CHARGES
-------------------------------
  0 C s       :     2.731224  s :     2.731224
      pz      :     0.852150  p :     2.835851
      px      :     1.094952
      py      :     0.888748
      dz2     :     0.122870  d :     0.350670
      dxz     :     0.103068
      dyz     :     0.052367
      dx2y2   :     0.037085
      dxy     :     0.035280
  1 N s       :     3.108745  s :     3.108745
      pz      :     1.290823  p :     3.907698
      px      :     1.442433
      py      :     1.174443
      dz2     :     0.018519  d :     0.064993
      dxz     :     0.019326
      dyz     :     0.009313
      dx2y2   :     0.010242
      dxy     :     0.007593
  2 C s       :     2.773997  s :     2.773997
      pz      :     1.041358  p :     2.977144
      px      :     1.095616
      py      :     0.840170
      dz2     :     0.063065  d :     0.193747
      dxz     :     0.074103
      dyz     :     0.030320
      dx2y2   :     0.015194
      dxy     :     0.011065
  3 C s       :     2.772565  s :     2.772565
      pz      :     1.079083  p :     3.131886
      px      :     1.096798
      py      :     0.956005
      dz2     :     0.035271  d :     0.129471
      dxz     :     0.047070
      dyz     :     0.008836
      dx2y2   :     0.022413
      dxy     :     0.015882
  4 C s       :     2.769286  s :     2.769286
      pz      :     1.075501  p :     3.022900
      px      :     1.104012
      py      :     0.843388
      dz2     :     0.043296  d :     0.134770
      dxz     :     0.039825
      dyz     :     0.023307
      dx2y2   :     0.016118
      dxy     :     0.012224
  5 C s       :     2.753264  s :     2.753264
      pz      :     1.086468  p :     3.129446
      px      :     0.962264
      py      :     1.080714
      dz2     :     0.039219  d :     0.181927
      dxz     :     0.074922
      dyz     :     0.020013
      dx2y2   :     0.030333
      dxy     :     0.017440
  6 N s       :     2.997853  s :     2.997853
      pz      :     1.220341  p :     3.530701
      px      :     1.229805
      py      :     1.080555
      dz2     :     0.079360  d :     0.268805
      dxz     :     0.093365
      dyz     :     0.045275
      dx2y2   :     0.026082
      dxy     :     0.024723
  7 O s       :     3.574505  s :     3.574505
      pz      :     1.272950  p :     4.614067
      px      :     1.849391
      py      :     1.491726
      dz2     :     0.020626  d :     0.031623
      dxz     :     0.004682
      dyz     :     0.006166
      dx2y2   :     0.000102
      dxy     :     0.000048
  8 O s       :     3.548569  s :     3.548569
      pz      :     1.687577  p :     4.610363
      px      :     1.473727
      py      :     1.449060
      dz2     :     0.003579  d :     0.035290
      dxz     :     0.014860
      dyz     :     0.002668
      dx2y2   :     0.008659
      dxy     :     0.005523
  9 F s       :     3.713777  s :     3.713777
      pz      :     1.540731  p :     5.367820
      px      :     1.936340
      py      :     1.890749
      dz2     :     0.004666  d :     0.007254
      dxz     :     0.001190
      dyz     :     0.001345
      dx2y2   :     0.000041
      dxy     :     0.000011
 10 H s       :     0.849719  s :     0.849719
      pz      :     0.014929  p :     0.068731
      px      :     0.042146
      py      :     0.011656
 11 H s       :     0.841992  s :     0.841992
      pz      :     0.047477  p :     0.072167
      px      :     0.011295
      py      :     0.013395
 12 H s       :     0.827118  s :     0.827118
      pz      :     0.020844  p :     0.073414
      px      :     0.041042
      py      :     0.011527
 13 C s       :     2.858440  s :     2.858440
      pz      :     1.121519  p :     3.392803
      px      :     1.153107
      py      :     1.118177
      dz2     :     0.028074  d :     0.106840
      dxz     :     0.019106
      dyz     :     0.009285
      dx2y2   :     0.020276
      dxy     :     0.030098
 14 H s       :     0.926917  s :     0.926917
      pz      :     0.020527  p :     0.071771
      px      :     0.023238
      py      :     0.028006
 15 H s       :     0.927278  s :     0.927278
      pz      :     0.042381  p :     0.071771
      px      :     0.014783
      py      :     0.014607
 16 H s       :     0.927043  s :     0.927043
      pz      :     0.014490  p :     0.071765
      px      :     0.020404
      py      :     0.036871
 17 S s       :     5.612133  s :     5.612133
      pz      :     3.860467  p :    10.992723
      px      :     3.195508
      py      :     3.936747
      dz2     :     0.005023  d :     0.037163
      dxz     :     0.009990
      dyz     :     0.000347
      dx2y2   :     0.017061
      dxy     :     0.004741


                      *****************************
                      * MAYER POPULATION ANALYSIS *
                      *****************************

  NA   - Mulliken gross atomic population
  ZA   - Total nuclear charge
  QA   - Mulliken gross atomic charge
  VA   - Mayer's total valence
  BVA  - Mayer's bonded valence
  FA   - Mayer's free valence

  ATOM       NA         ZA         QA         VA         BVA        FA
  0 C      6.0396     6.0000    -0.0396     4.3158     4.3158     0.0000
  1 N      7.1896     7.0000    -0.1896     2.7135     2.7135     0.0000
  2 C      6.1965     6.0000    -0.1965     4.0992     4.0992     0.0000
  3 C      6.4214     6.0000    -0.4214     4.6458     4.6458    -0.0000
  4 C      5.4560     6.0000     0.5440     3.9524     3.9524    -0.0000
  5 C      6.1705     6.0000    -0.1705     3.3534     3.3534    -0.0000
  6 N      7.0156     7.0000    -0.0156     4.0316     4.0316     0.0000
  7 O      8.1617     8.0000    -0.1617     2.1104     2.1104    -0.0000
  8 O      8.1178     8.0000    -0.1178     2.1952     2.1952    -0.0000
  9 F      9.1176     9.0000    -0.1176     0.9292     0.9292     0.0000
 10 H      0.7174     1.0000     0.2826     0.8820     0.8820     0.0000
 11 H      0.7200     1.0000     0.2800     0.9082     0.9082     0.0000
 12 H      0.6767     1.0000     0.3233     0.8357     0.8357     0.0000
 13 C      6.4157     6.0000    -0.4157     3.5707     3.5707     0.0000
 14 H      0.8719     1.0000     0.1281     0.9428     0.9428     0.0000
 15 H      0.8703     1.0000     0.1297     0.9316     0.9316     0.0000
 16 H      0.8722     1.0000     0.1278     0.9421     0.9421     0.0000
 17 S     16.9697    16.0000    -0.9697     0.5977     0.5977     0.0000

  Mayer bond orders larger than 0.100000
B(  0-C ,  1-N ) :   1.2680 B(  0-C ,  2-C ) :   0.1546 B(  0-C ,  3-C ) :   0.1781 
B(  0-C ,  4-C ) :   0.2705 B(  0-C ,  5-C ) :   1.2246 B(  0-C ,  6-N ) :  -0.1968 
B(  0-C ,  7-O ) :   0.1153 B(  0-C ,  8-O ) :  -0.1121 B(  0-C ,  9-F ) :   1.4469 
B(  1-N ,  2-C ) :   1.1414 B(  1-N ,  5-C ) :   0.2212 B(  2-C ,  3-C ) :   1.7761 
B(  2-C ,  5-C ) :   0.1409 B(  2-C , 10-H ) :   0.8554 B(  3-C ,  4-C ) :   1.3815 
B(  3-C ,  5-C ) :   0.1496 B(  3-C ,  8-O ) :   0.1595 B(  3-C , 11-H ) :   0.8374 
B(  4-C ,  5-C ) :   1.5252 B(  4-C ,  8-O ) :   0.2432 B(  4-C ,  9-F ) :  -0.1477 
B(  4-C , 12-H ) :   0.7183 B(  5-C ,  6-N ) :   0.6810 B(  5-C ,  7-O ) :  -0.1332 
B(  5-C ,  8-O ) :  -0.2035 B(  5-C ,  9-F ) :  -0.4174 B(  5-C , 12-H ) :   0.1537 
B(  6-N ,  7-O ) :   1.8278 B(  6-N ,  8-O ) :   1.8389 B(  7-O ,  8-O ) :   0.2498 
B( 13-C , 14-H ) :   0.9840 B( 13-C , 15-H ) :   0.9765 B( 13-C , 16-H ) :   0.9829 
B( 13-C , 17-S ) :   0.6295 

-------
TIMINGS
-------

Total SCF time: 0 days 0 hours 0 min 21 sec 

Total time                  ....      21.962 sec
Sum of individual times     ....      21.073 sec  ( 96.0%)

Fock matrix formation       ....      18.911 sec  ( 86.1%)
  Split-RI-J                ....       1.208 sec  (  6.4% of F)
  Chain of spheres X        ....      13.142 sec  ( 69.5% of F)
  XC integration            ....       2.680 sec  ( 14.2% of F)
    Basis function eval.    ....       0.208 sec  (  7.8% of XC)
    Density eval.           ....       0.469 sec  ( 17.5% of XC)
    XC-Functional eval.     ....       0.091 sec  (  3.4% of XC)
    XC-Potential eval.      ....       0.142 sec  (  5.3% of XC)
Diagonalization             ....       0.027 sec  (  0.1%)
Density matrix formation    ....       0.014 sec  (  0.1%)
Population analysis         ....       0.073 sec  (  0.3%)
Initial guess               ....       0.044 sec  (  0.2%)
Orbital Transformation      ....       0.000 sec  (  0.0%)
Orbital Orthonormalization  ....       0.032 sec  (  0.1%)
DIIS solution               ....       0.011 sec  (  0.1%)
SOSCF solution              ....       0.172 sec  (  0.8%)
Grid generation             ....       1.821 sec  (  8.3%)

Maximum memory used throughout the entire SCF-calculation: 68.3 MB

-------------------------   --------------------
FINAL SINGLE POINT ENERGY      -990.265461582799
-------------------------   --------------------

                                *** OPTIMIZATION RUN DONE ***

                            ***************************************
                            *     ORCA property calculations      *
                            ***************************************

                                    ---------------------
                                    Active property flags
                                    ---------------------
   (+) Dipole Moment


------------------------------------------------------------------------------
                       ORCA ELECTRIC PROPERTIES CALCULATION
------------------------------------------------------------------------------

Dipole Moment Calculation                       ... on
Quadrupole Moment Calculation                   ... off
Polarizability Calculation                      ... off
GBWName                                         ... structure_opt.gbw
Electron density                                ... structure_opt.scfp
The origin for moment calculation is the CENTER OF MASS  = ( 2.171339,  0.202976  4.493904)

-------------
DIPOLE MOMENT
-------------
                                X             Y             Z
Electronic contribution:    -27.39151       0.47031      -6.28251
Nuclear contribution   :     18.82662      -0.46419       9.83132
                        -----------------------------------------
Total Dipole Moment    :     -8.56489       0.00612       3.54881
                        -----------------------------------------
Magnitude (a.u.)       :      9.27100
Magnitude (Debye)      :     23.56501



--------------------
Rotational spectrum 
--------------------
 
Rotational constants in cm-1:     0.062301     0.006349     0.005793 
Rotational constants in MHz :  1867.742804   190.336254   173.682676 

 Dipole components along the rotational axes: 
x,y,z [a.u.] :    -8.456752     3.795444    -0.171405 
x,y,z [Debye]:   -21.495356     9.647253    -0.435676 

 

Timings for individual modules:

Sum of individual times         ...     1311.690 sec (=  21.861 min)
GTO integral calculation        ...       68.272 sec (=   1.138 min)   5.2 %
SCF iterations                  ...     1036.525 sec (=  17.275 min)  79.0 %
SCF Gradient evaluation         ...      205.771 sec (=   3.430 min)  15.7 %
Geometry relaxation             ...        1.122 sec (=   0.019 min)   0.1 %
                             ****ORCA TERMINATED NORMALLY****
TOTAL RUN TIME: 0 days 0 hours 23 minutes 4 seconds 145 msec
