
                                 *****************
                                 * O   R   C   A *
                                 *****************

                                            #,                                       
                                            ###                                      
                                            ####                                     
                                            #####                                    
                                            ######                                   
                                           ########,                                 
                                     ,,################,,,,,                         
                               ,,#################################,,                 
                          ,,##########################################,,             
                       ,#########################################, ''#####,          
                    ,#############################################,,   '####,        
                  ,##################################################,,,,####,       
                ,###########''''           ''''###############################       
              ,#####''   ,,,,##########,,,,          '''####'''          '####       
            ,##' ,,,,###########################,,,                        '##       
           ' ,,###''''                  '''############,,,                           
         ,,##''                                '''############,,,,        ,,,,,,###''
      ,#''                                            '''#######################'''  
     '                                                          ''''####''''         
             ,#######,   #######,   ,#######,      ##                                
            ,#'     '#,  ##    ##  ,#'     '#,    #''#        ######   ,####,        
            ##       ##  ##   ,#'  ##            #'  '#       #        #'  '#        
            ##       ##  #######   ##           ,######,      #####,   #    #        
            '#,     ,#'  ##    ##  '#,     ,#' ,#      #,         ##   #,  ,#        
             '#######'   ##     ##  '#######'  #'      '#     #####' # '####'        



                  #######################################################
                  #                        -***-                        #
                  #          Department of theory and spectroscopy      #
                  #    Directorship and core code : Frank Neese         #
                  #        Max Planck Institute fuer Kohlenforschung    #
                  #                Kaiser Wilhelm Platz 1               #
                  #                 D-45470 Muelheim/Ruhr               #
                  #                      Germany                        #
                  #                                                     #
                  #                  All rights reserved                #
                  #                        -***-                        #
                  #######################################################


                         Program Version 5.0.1 -  RELEASE  -


 With contributions from (in alphabetic order):
   Daniel Aravena         : Magnetic Suceptibility
   Michael Atanasov       : Ab Initio Ligand Field Theory (pilot matlab implementation)
   Alexander A. Auer      : GIAO ZORA, VPT2 properties, NMR spectrum
   Ute Becker             : Parallelization
   Giovanni Bistoni       : ED, misc. LED, open-shell LED, HFLD
   Martin Brehm           : Molecular dynamics
   Dmytro Bykov           : SCF Hessian
   Vijay G. Chilkuri      : MRCI spin determinant printing, contributions to CSF-ICE
   Dipayan Datta          : RHF DLPNO-CCSD density
   Achintya Kumar Dutta   : EOM-CC, STEOM-CC
   Dmitry Ganyushin       : Spin-Orbit,Spin-Spin,Magnetic field MRCI
   Miquel Garcia          : C-PCM and meta-GGA Hessian, CC/C-PCM, Gaussian charge scheme
   Yang Guo               : DLPNO-NEVPT2, F12-NEVPT2, CIM, IAO-localization
   Andreas Hansen         : Spin unrestricted coupled pair/coupled cluster methods
   Benjamin Helmich-Paris : MC-RPA, TRAH-SCF, COSX integrals
   Lee Huntington         : MR-EOM, pCC
   Robert Izsak           : Overlap fitted RIJCOSX, COSX-SCS-MP3, EOM
   Marcus Kettner         : VPT2
   Christian Kollmar      : KDIIS, OOCD, Brueckner-CCSD(T), CCSD density, CASPT2, CASPT2-K
   Simone Kossmann        : Meta GGA functionals, TD-DFT gradient, OOMP2, MP2 Hessian
   Martin Krupicka        : Initial AUTO-CI
   Lucas Lang             : DCDCAS
   Marvin Lechner         : AUTO-CI (C++ implementation), FIC-MRCC
   Dagmar Lenk            : GEPOL surface, SMD
   Dimitrios Liakos       : Extrapolation schemes; Compound Job, initial MDCI parallelization
   Dimitrios Manganas     : Further ROCIS development; embedding schemes
   Dimitrios Pantazis     : SARC Basis sets
   Anastasios Papadopoulos: AUTO-CI, single reference methods and gradients
   Taras Petrenko         : DFT Hessian,TD-DFT gradient, ASA, ECA, R-Raman, ABS, FL, XAS/XES, NRVS
   Peter Pinski           : DLPNO-MP2, DLPNO-MP2 Gradient
   Christoph Reimann      : Effective Core Potentials
   Marius Retegan         : Local ZFS, SOC
   Christoph Riplinger    : Optimizer, TS searches, QM/MM, DLPNO-CCSD(T), (RO)-DLPNO pert. Triples
   Tobias Risthaus        : Range-separated hybrids, TD-DFT gradient, RPA, STAB
   Michael Roemelt        : Original ROCIS implementation
   Masaaki Saitow         : Open-shell DLPNO-CCSD energy and density
   Barbara Sandhoefer     : DKH picture change effects
   Avijit Sen             : IP-ROCIS
   Kantharuban Sivalingam : CASSCF convergence, NEVPT2, FIC-MRCI
   Bernardo de Souza      : ESD, SOC TD-DFT
   Georgi Stoychev        : AutoAux, RI-MP2 NMR, DLPNO-MP2 response
   Willem Van den Heuvel  : Paramagnetic NMR
   Boris Wezisla          : Elementary symmetry handling
   Frank Wennmohs         : Technical directorship


 We gratefully acknowledge several colleagues who have allowed us to
 interface, adapt or use parts of their codes:
   Stefan Grimme, W. Hujo, H. Kruse, P. Pracht,  : VdW corrections, initial TS optimization,
                  C. Bannwarth, S. Ehlert          DFT functionals, gCP, sTDA/sTD-DF
   Ed Valeev, F. Pavosevic, A. Kumar             : LibInt (2-el integral package), F12 methods
   Garnet Chan, S. Sharma, J. Yang, R. Olivares  : DMRG
   Ulf Ekstrom                                   : XCFun DFT Library
   Mihaly Kallay                                 : mrcc  (arbitrary order and MRCC methods)
   Jiri Pittner, Ondrej Demel                    : Mk-CCSD
   Frank Weinhold                                : gennbo (NPA and NBO analysis)
   Christopher J. Cramer and Donald G. Truhlar   : smd solvation model
   Lars Goerigk                                  : TD-DFT with DH, B97 family of functionals
   V. Asgeirsson, H. Jonsson                     : NEB implementation
   FAccTs GmbH                                   : IRC, NEB, NEB-TS, DLPNO-Multilevel, CI-OPT
                                                   MM, QMMM, 2- and 3-layer-ONIOM, Crystal-QMMM,
                                                   LR-CPCM, SF, NACMEs, symmetry and pop. for TD-DFT,
                                                   nearIR, NL-DFT gradient (VV10), updates on ESD,
                                                   ML-optimized integration grids
   S Lehtola, MJT Oliveira, MAL Marques          : LibXC Library
   Liviu Ungur et al                             : ANISO software


 Your calculation uses the libint2 library for the computation of 2-el integrals
 For citations please refer to: http://libint.valeyev.net

 Your ORCA version has been built with support for libXC version: 5.1.0
 For citations please refer to: https://tddft.org/programs/libxc/

 This ORCA versions uses:
   CBLAS   interface :  Fast vector & matrix operations
   LAPACKE interface :  Fast linear algebra routines
   SCALAPACK package :  Parallel linear algebra routines
   Shared memory     :  Shared parallel matrices
   BLAS/LAPACK       :  OpenBLAS 0.3.15  USE64BITINT DYNAMIC_ARCH NO_AFFINITY SkylakeX SINGLE_THREADED
        Core in use  :  SkylakeX
   Copyright (c) 2011-2014, The OpenBLAS Project




***************************************
The coordinates will be read from file: structure_opt.xyz
***************************************


Your calculation utilizes the atom-pairwise dispersion correction
based on tight binding partial charges (D4)
Cite in your paper:
E.Caldeweyher, C.Bannwarth, S.Grimme, J.Chem.Phys., (2017), 147, 034112.
E.Caldeweyher, S.Ehlert, A.Hansen, H.Neugebauer, S.Grimme, J.Chem.Phys., (2018), in progress.
   

Your calculation utilizes the SMD solvation module
Please cite in your paper:
A.V. Marenich, C.J. Cramer, D.G. Truhlar J. Phys. Chem. B, 113, (2009), 6378 

XCFun DFT library Copyright 2009-2010 Ulf Ekstrom and contributors.
See http://admol.org/xcfun for more information.
This is free software; see the source code for copying conditions.
There is ABSOLUTELY NO WARRANTY; not even for MERCHANTABILITY or FITNESS FOR A PARTICULAR PURPOSE.
For details see the documentation.
Scientific users of this library should cite U. Ekstrom, L. Visscher, R. Bast, A. J. Thorvaldsen and K. Ruud;
J.Chem.Theor.Comp. 2010, DOI: 10.1021/ct100117s
XCFun Version 0.99 

Your calculation utilizes a Nudged-Elastic-Band implementation
 by V.Asgeirsson, C. Riplinger & H. Jonsson
Please cite in your paper:
 V. Asgeirsson et al., in prep. (2019)
   

================================================================================

----- Orbital basis set information -----
Your calculation utilizes the basis: 6-311++G**
   H, Li - Ne  : R. Krishnan, J. S. Binkley, R. Seeger and J. A. Pople, J. Chem. Phys. 72, 650 (1980).
   Na - Ar     : A. D. McLean and G. S. Chandler J. Chem. Phys. 72, 5639, (1980).
   K  - Ca     : J.-P. Blaudeau, M. P. McGrath, L. A. Curtiss and L. Radom, J. Chem. Phys. 107, 5016 (1997).
   Ga - Kr     : L. A. Curtiss, M. P. McGrath, J.-P. Blandeau, N. E. Davis, R. C. Binning and L. Radom, J. Chem. Phys. 103, 6104 (1995).
   Pol./Diff.
   H, Li - Cl  : T. Clark, J. Chandrasekhar and P. v. R. Schleyer, J. Comp. Chem. 4, 294 (1983).
   H - Ne      : M. J. Frisch, J. A. Pople and J. S. Binkley, J. Chem. Phys. 80, 3265 (1984).

----- AuxJ basis set information -----
Your calculation utilizes the auxiliary basis: def2/J
   F. Weigend, Phys. Chem. Chem. Phys. 8, 1057 (2006).

================================================================================
                                        WARNINGS
                       Please study these warnings very carefully!
================================================================================


WARNING: The environment variable RSH_COMMAND is not set!
  ===> : All Displacements for the Numerical Hessian calculation
         will be started on localhost

WARNING: Geometry Optimization
  ===> : Switching off AutoStart
         For restart on a previous wavefunction, please use MOREAD

INFO   : the flag for use of the SHARK integral package has been found!

================================================================================
                                       INPUT FILE
================================================================================
NAME = TS_search_opt_without_h.inp
|  1> !wb97x 6-311++G** D4 NEB-TS OPT NUMFREQ CPCM(WATER)
|  2> %maxcore  3500
|  3> %pal
|  4> nprocs 24
|  5> end
|  6> %cpcm
|  7> smd true
|  8> SMDsolvent "water"
|  9> end
| 10> %geom
| 11> MaxIter 1000   # allows for n optimization cycles
| 12> EnforceStrictConvergence False
| 13> end
| 14> %NEB NEB_END_XYZFILE "2f3_prod_opt.xyz" END
| 15> * XYZfile -1 1 structure_opt.xyz
| 16> 
| 17>                          ****END OF INPUT****
================================================================================


------------------------------------------------------------------------------- 
                         Nudged Elastic Band Calculation                       
------------------------------------------------------------------------------- 

Number of images (incl. end points)     ....  10
Number of intermediate images           ....  8
Number of optimized images              ....  8
Optimization of end points before NEB   ....  NO
Use existing gbw files for MO input     ....  NO
Number of atoms                         ....  18
Number of (active) degrees of freedom   ....  54
Constrained atoms                       ....  None

-----------------------------------------
  REACTANT (ANGSTROEM)
-----------------------------------------
C      0.056392    -0.014227     1.877867 
N      1.160160    -0.198532     2.536185 
C      1.192204    -0.196482     3.868370 
C      0.063020    -0.002104     4.632567 
C     -1.123609     0.196016     3.957072 
C     -1.156644     0.194056     2.570650 
N     -2.399513     0.402467     1.872807 
O     -2.446799     0.404998     0.625694 
O     -3.391203     0.573823     2.553879 
F      0.097190    -0.026920     0.528547 
H      2.164215    -0.353251     4.321588 
H      0.103008    -0.005543     5.713838 
H     -2.047454     0.355022     4.498220 
C      8.317726     0.002052     2.689951 
H      8.879730    -0.765539     2.150746 
H      8.368117    -0.206081     3.762261 
H      8.772191     0.977270     2.494043 
S      6.599269     0.004975     2.143716 

-----------------------------------------
  PRODUCT (ANGSTROEM)
-----------------------------------------
C     -0.006655     0.014080     1.789576 
N      1.150760    -0.163122     2.425247 
C      1.177726    -0.139964     3.759145 
C      0.054738     0.057580     4.546999 
C     -1.158972     0.233636     3.911162 
C     -1.178720     0.217442     2.525234 
N     -2.493686     0.427964     1.904940 
O     -2.584738     1.164910     0.947848 
O     -3.439094    -0.145340     2.414303 
F      3.139899     2.499865     0.919104 
H      2.152169    -0.281946     4.215772 
H      0.130494     0.071637     5.627108 
H     -2.077395     0.389730     4.465403 
C      0.049505     1.625975    -0.482258 
H     -0.875798     2.113075    -0.187252 
H      0.131238     1.624494    -1.570971 
H      0.921382     2.132605    -0.060262 
S      0.064147    -0.119619     0.009902 



----------------------
NEB settings
----------------------
Method type                             ....  climbing image
Threshold for climbing image            ....  2.00e-02 Eh/Bohr 
Free endpoints                          ....  off 
Tangent type                            ....  improved 
Number of intermediate images           ....  8 
Number of images free to move           ....  8 
Spring type for image distribution      ....  distance between adjacent images 
Spring constant                         ....  energy weighted (0.0100 -to- 0.1000) Eh/Bohr^2 
Spring force perp. to the path          ....  none 
Generation of initial path              ....  image dependent pair potential 
Initial path via TS guess               ....  off 

Minimization of RMSD: Rotation          ....  always 
Minimization of RMSD: Translation type  ....  centroid 
Center fixed to origin                  ....  true 
Remove external force                   ....  true 

Reparametrization of the path           ....  off 
Convergence thresholds:
Convergence monitored for               ....  all images
Scaling factor                          ....  10.00

Convergence parameters for regular images:
               Max(|Fp|)                ....  2.00e-02 Eh/Bohr
               RMS(Fp)                  ....  1.00e-02 Eh/Bohr

Convergence parameters for climbing image:
               Max(|F|)                 ....  2.00e-03 Eh/Bohr
               RMS(F)                   ....  1.00e-03 Eh/Bohr
Optimization method:
Method                                  ....  L-BFGS
Max. iterations                         ....  500 
Step size                               ....  1.00 
Maximum allowed step size               ....  0.10 Bohr

LBFGS parameters: 
               Memory                   ....  20 
               Initial step size        ....  0.0010 
               Estimate curvature       ....  YES 
               Reset on maxmove         ....  YES 
               Reparam. on reset        ....  NO 
Generation of  the initial path:
Minimize RMSD between reactant and product configurations     .... done
       RMSD before minimization         ....  5.2923 Bohr
       RMSD after minimization          ....  3.7008 Bohr
Performing linear interpolation         ....  done
Interpolation using                     ....  IDPP (Image Dependent Pair Potential)
IDPP-Settings:
       Remove global transl. and rot.   ...   true
       Convergence tolerance            ....  0.0100 1/Ang.^3
       Max. numer of iterations         ....    7000
       Spring constant                  ....  1.0000 1/Ang.^4
       Time step                        ....  0.0100 fs
       Max. movement per iteration      ....  0.0500 Ang.
       Full print                       ....  false 
idpp initial path generation successfully converged in 169 iterations
Displacement along initial path:             31.1831 Bohr
Writing initial trajectory to file      ....  TS_search_opt_without_h_initial_path_trj.xyz



----------------------
NEB OPTIMIZATION      
----------------------

Following output files will be written:
Energy profile during opt. written to    ....  TS_search_opt_without_h.interp
Optimization log-file                    ....  TS_search_opt_without_h.NEB.log
Current trajectory will be written to    ....  TS_search_opt_without_h_MEP_trj.xyz
       and to allxyz file                ....  TS_search_opt_without_h_MEP.allxyz
       and individual images to xyz file ....  TS_search_opt_without_h_im{NIm}.xyz
Trajectory history will be written to    ....  TS_search_opt_without_h_MEP_ALL_trj.xyz
Converged CI will be written to          ....  TS_search_opt_without_h_NEB-CI_converged.xyz
Converged TS will be written to          ....  TS_search_opt_without_h_NEB-TS_converged.xyz

Single point energy and gradient calculation of reactant and
product configurations (have to be performed only once)
Properties of fixed NEB end points:
               Reactant:
                         E               ....   -990.267949 Eh
                         RMS(F)          ....      0.010104 Eh/Bohr
                         MAX(|F|)        ....      0.037224 Eh/Bohr
      Warning: Reactant seems to be less converged than convergence tolerances.
               You might want to use free end NEB or preopt_ends true.
               Product:
                         E               ....   -990.305502 Eh
                         RMS(F)          ....      0.001256 Eh/Bohr
                         MAX(|F|)        ....      0.003726 Eh/Bohr



Starting iterations:

Optim.  Iteration  HEI  E(HEI)-E(0)  max(|Fp|)   RMS(Fp)    dS
Switch-on CI threshold               0.020000 
   LBFGS     0      4    0.198220    0.142596   0.018500  31.1831       
   LBFGS     1      4    0.180704    0.072405   0.010609  31.1340       
   LBFGS     2      4    0.172785    0.066642   0.009771  31.0764       
   LBFGS     3      4    0.168501    0.065280   0.009063  31.0271       
   LBFGS     4      4    0.166978    0.080238   0.010432  30.9880       
   LBFGS     5      4    0.165413    0.093778   0.011851  30.9532       
   LBFGS     6      4    0.166244    0.140153   0.016025  30.9198       
   LBFGS     7      4    0.158298    0.047302   0.006554  30.9057       
   LBFGS     8      4    0.159092    0.059774   0.008241  30.8907       
   LBFGS     9      4    0.160417    0.081313   0.010616  30.8716       
   LBFGS    10      4    0.160884    0.097652   0.012382  30.8642       
   LBFGS    11      4    0.157320    0.086610   0.010700  30.8582       
   LBFGS    12      4    0.156265    0.077148   0.009966  30.8576       
   LBFGS    13      4    0.155191    0.051265   0.007307  30.8549       
   LBFGS    14      4    0.156052    0.065918   0.008989  30.8568       
   LBFGS    15      4    0.157332    0.081218   0.010375  30.8663       
   LBFGS    16      4    0.158643    0.099486   0.012399  30.8738       
   LBFGS    17      4    0.152814    0.040093   0.006217  30.8729       
   LBFGS    18      4    0.152749    0.040217   0.005566  30.8865       
   LBFGS    19      4    0.166332    0.166155   0.014929  30.9079       
   LBFGS    20      4    0.155086    0.074819   0.009718  30.9163       
   LBFGS    21      4    0.151759    0.070613   0.008530  30.9481       
   LBFGS    22      4    0.151918    0.044305   0.006924  30.9474       
   LBFGS    23      4    0.151082    0.037092   0.004821  30.9504       
   LBFGS    24      4    0.152036    0.041721   0.006081  30.9728       
   LBFGS    25      4    0.152122    0.038174   0.005158  30.9752       
   LBFGS    26      4    0.152070    0.038644   0.005518  30.9815       
   LBFGS    27      4    0.152513    0.045840   0.006678  31.0106       
   LBFGS    28      4    0.152780    0.054375   0.006711  31.0214       
   LBFGS    29      4    0.151175    0.024616   0.004145  31.0254       
   LBFGS    30      4    0.151885    0.047699   0.006810  31.0659       
   LBFGS    31      4    0.151562    0.035265   0.004614  31.0768       
   LBFGS    32      4    0.150785    0.023617   0.003318  31.0834       
   LBFGS    33      4    0.152005    0.041507   0.006755  31.1327       
   LBFGS    34      4    0.151488    0.035434   0.004477  31.1393       
   LBFGS    35      4    0.150688    0.016520   0.003000  31.1441       

Image  4 will be converted to a climbing image in the next iteration (max(|Fp|) < 0.0200) 

Optim.  Iteration  CI   E(CI)-E(0)   max(|Fp|)   RMS(Fp)    dS     max(|FCI|)   RMS(FCI)
Convergence thresholds               0.020000   0.010000            0.002000    0.001000 
   LBFGS    36      4    0.150605    0.014030   0.002617  31.1460    0.004081    0.001282       
   LBFGS    37      4    0.151292    0.038279   0.005378  31.1804    0.030597    0.007150       
   LBFGS    38      4    0.151771    0.055917   0.007541  31.2473    0.038832    0.009088       
   LBFGS    39      4    0.150960    0.024839   0.003084  31.2599    0.027979    0.006831       
   LBFGS    40      4    0.150401    0.012562   0.002496  31.2686    0.002986    0.001163       
   LBFGS    41      4    0.150762    0.021832   0.003349  31.2910    0.021831    0.005450       
   LBFGS    42      4    0.152673    0.047346   0.005631  31.3848    0.050842    0.012688       
   LBFGS    43      4    0.150545    0.016551   0.002488  31.3913    0.020860    0.005218       
   LBFGS    44      4    0.150229    0.008854   0.001908  31.3951    0.005826    0.001611       
   LBFGS    45      4    0.150557    0.018757   0.003112  31.4238    0.022082    0.005463       
   LBFGS    46      4    0.152002    0.040071   0.005322  31.4924    0.045353    0.011499       
   LBFGS    47      4    0.153556    0.051856   0.006650  31.5954    0.060282    0.015303       
   LBFGS    48      4    0.150303    0.027531   0.002932  31.5987    0.024813    0.006086       
   LBFGS    49      4    0.149866    0.008574   0.001610  31.6014    0.005896    0.001621       
   LBFGS    50      4    0.149848    0.009698   0.001914  31.6126    0.006786    0.001847       
   LBFGS    51      4    0.149998    0.021886   0.002862  31.6396    0.017032    0.004347       
   LBFGS    52      4    0.150335    0.031997   0.003767  31.7150    0.029393    0.007401       
   LBFGS    53      4    0.149745    0.014861   0.002058  31.7164    0.016734    0.004130       
   LBFGS    54      4    0.149556    0.008374   0.001536  31.7172    0.006742    0.001766       
   LBFGS    55      4    0.149499    0.014194   0.001935  31.7259    0.006720    0.001766       
   LBFGS    56      4    0.149631    0.024781   0.002640  31.7467    0.017699    0.004451       
   LBFGS    57      4    0.149749    0.036104   0.003664  31.8029    0.025869    0.006503       
   LBFGS    58      4    0.149796    0.028352   0.002713  31.8110    0.031034    0.007507       
   LBFGS    59      4    0.149180    0.009609   0.001634  31.8172    0.010118    0.002556       
   LBFGS    60      4    0.149072    0.011397   0.001730  31.8369    0.004846    0.001408       
   LBFGS    61      4    0.149094    0.010715   0.001621  31.8612    0.012118    0.003011       
   LBFGS    62      4    0.148737    0.025919   0.002704  31.9395    0.003337    0.000871       
   LBFGS    63      4    0.148714    0.020597   0.002163  31.9429    0.003353    0.000802       
   LBFGS    64      4    0.148695    0.012972   0.001648  31.9446    0.003357    0.000736       
   LBFGS    65      4    0.148566    0.007712   0.001417  31.9684    0.003401    0.000713       
   LBFGS    66      4    0.148443    0.018649   0.001929  32.0016    0.003439    0.000819       
   LBFGS    67      4    0.148179    0.031095   0.002761  32.0827    0.003515    0.000986       
   LBFGS    68      4    0.148151    0.047011   0.004073  32.0993    0.004640    0.001269       
   LBFGS    69      4    0.148120    0.017510   0.001858  32.1044    0.003536    0.000840       
   LBFGS    70      4    0.148049    0.009095   0.001368  32.1296    0.003551    0.000768       
   LBFGS    71      4    0.147987    0.010208   0.001404  32.1468    0.003567    0.000726       
   LBFGS    72      4    0.147736    0.011381   0.001679  32.2372    0.008395    0.002234       
   LBFGS    73      4    0.147774    0.017738   0.001889  32.2434    0.013200    0.003298       
   LBFGS    74      4    0.147658    0.011910   0.001579  32.2486    0.007645    0.002021       
   LBFGS    75      4    0.147425    0.007062   0.001382  32.2947    0.003724    0.000814       
   LBFGS    76      4    0.147518    0.010896   0.001667  32.3493    0.018165    0.004507       
   LBFGS    77      4    0.147753    0.022742   0.002689  32.4811    0.032050    0.007889       
   LBFGS    78      4    0.147403    0.015267   0.001814  32.4937    0.028408    0.006895       
   LBFGS    79      4    0.146894    0.008611   0.001446  32.5007    0.010850    0.002716       
   LBFGS    80      4    0.146743    0.006061   0.001142  32.5339    0.006065    0.001687       
   LBFGS    81      4    0.146703    0.006044   0.001099  32.5576    0.009943    0.002517       
   LBFGS    82      4    0.146236    0.015352   0.001846  32.6762    0.003273    0.000972       
   LBFGS    83      4    0.146187    0.031347   0.002726  32.6913    0.003252    0.000874       
   LBFGS    84      4    0.146155    0.015538   0.001613  32.7019    0.003234    0.000965       
   LBFGS    85      4    0.146050    0.005518   0.001056  32.7373    0.003190    0.000741       
   LBFGS    86      4    0.145951    0.009989   0.001357  32.7772    0.003158    0.000727       
   LBFGS    87      4    0.145515    0.028435   0.002615  32.9664    0.003165    0.000895       
   LBFGS    88      4    0.145476    0.027443   0.002506  32.9758    0.003178    0.000768       
   LBFGS    89      4    0.145453    0.013578   0.001509  32.9799    0.003186    0.000770       
   LBFGS    90      4    0.145344    0.005533   0.001021  33.0078    0.003229    0.000808       
   LBFGS    91      4    0.145245    0.007525   0.001101  33.0337    0.003267    0.000786       
   LBFGS    92      4    0.144750    0.011068   0.001552  33.1827    0.003341    0.000901       
   LBFGS    93      4    0.144691    0.022482   0.001978  33.2050    0.003335    0.000851       
   LBFGS    94      4    0.144644    0.010808   0.001192  33.2214    0.003330    0.000882       
   LBFGS    95      4    0.144504    0.005963   0.000976  33.2664    0.003309    0.000819       
   LBFGS    96      4    0.144321    0.009504   0.001277  33.3228    0.003263    0.000833       
   LBFGS    97      4    0.143701    0.019103   0.002192  33.5196    0.003359    0.001020       
   LBFGS    98      4    0.143657    0.021527   0.002176  33.5234    0.003324    0.001109       
   LBFGS    99      4    0.143616    0.011429   0.001397  33.5259    0.003113    0.000878       
   LBFGS   100      4    0.143466    0.004597   0.000830  33.5483    0.003126    0.000923       
   LBFGS   101      4    0.143380    0.007347   0.001078  33.5790    0.007572    0.002007       
   LBFGS   102      4    0.142985    0.017541   0.001968  33.6956    0.011306    0.002780       
   LBFGS   103      4    0.142570    0.019657   0.002165  33.8927    0.021788    0.005201       
   LBFGS   104      4    0.142306    0.005445   0.001205  33.9020    0.014768    0.003707       
   LBFGS   105      4    0.142129    0.006774   0.001127  33.9083    0.006394    0.001815       
   LBFGS   106      4    0.141912    0.005443   0.000942  33.9506    0.007203    0.001988       
   LBFGS   107      4    0.141774    0.004463   0.000985  33.9804    0.011033    0.002841       
   LBFGS   108      4    0.141171    0.007085   0.001412  34.0544    0.004422    0.001443       
   LBFGS   109      4    0.140067    0.012441   0.002097  34.2060    0.004797    0.001365       
   LBFGS   110      4    0.139941    0.013871   0.002200  34.2142    0.004907    0.001325       
   LBFGS   111      4    0.139827    0.010754   0.001473  34.2241    0.005004    0.001300       
   LBFGS   112      4    0.139434    0.005710   0.001100  34.2664    0.005433    0.001424       
   LBFGS   113      4    0.139084    0.012225   0.001782  34.3076    0.006621    0.002091       
   LBFGS   114      4    0.138498    0.016550   0.002163  34.3675    0.006332    0.001715       
   LBFGS   115      4    0.137093    0.017736   0.002482  34.5518    0.018373    0.004645       
   LBFGS   116      4    0.136938    0.009025   0.001515  34.5442    0.016270    0.004090       
   LBFGS   117      4    0.136706    0.009798   0.001555  34.5394    0.010430    0.002892       
   LBFGS   118      4    0.135683    0.009585   0.002141  34.5219    0.008613    0.002385       
   LBFGS   119      4    0.136590    0.033253   0.003949  34.5638    0.046280    0.011148       
   LBFGS   120      4    0.135214    0.010817   0.001855  34.5608    0.014743    0.004069       
   LBFGS   121      4    0.134590    0.008511   0.001461  34.5884    0.009236    0.002330       

Possible intermediate minimum found at image(s): 1 
  => have a look at the .interp file.
  => it is often a good idea to divide the path calculation into smaller fragments. 

   LBFGS   122      4    0.133856    0.022108   0.002603  34.6848    0.024916    0.006210       
   LBFGS   123      4    0.132769    0.028875   0.003233  34.8424    0.034558    0.008300       
   LBFGS   124      4    0.131857    0.018190   0.002050  34.8451    0.018947    0.004965       
   LBFGS   125      4    0.131606    0.009774   0.001514  34.8466    0.010494    0.003247       
   LBFGS   126      4    0.131405    0.012871   0.001619  34.8778    0.009713    0.002724       
   LBFGS   127      4    0.131398    0.014369   0.001533  34.9275    0.014916    0.004057       
   LBFGS   128      4    0.130607    0.024454   0.002545  35.0982    0.006893    0.002029       
   LBFGS   129      4    0.130530    0.021530   0.002167  35.1079    0.006534    0.001888       
   LBFGS   130      4    0.130467    0.016801   0.001711  35.1159    0.006343    0.001748       
   LBFGS   131      4    0.129956    0.012277   0.001887  35.2099    0.004410    0.001661       
   LBFGS   132      4    0.129854    0.017699   0.001859  35.2178    0.004360    0.001578       
   LBFGS   133      4    0.129776    0.011072   0.001347  35.2257    0.004238    0.001472       
   LBFGS   134      4    0.129350    0.005929   0.001321  35.2862    0.003699    0.001419       
   LBFGS   135      4    0.128990    0.015576   0.001850  35.3532    0.004562    0.001744       
   LBFGS   136      4    0.127753    0.019456   0.002609  35.5889    0.005205    0.001895       
   LBFGS   137      4    0.127612    0.017260   0.002165  35.5957    0.006411    0.001639       
   LBFGS   138      4    0.127505    0.010124   0.001544  35.5998    0.004195    0.001378       
   LBFGS   139      4    0.127162    0.006582   0.001135  35.6076    0.003680    0.001351       
   LBFGS   140      4    0.126965    0.014480   0.001603  35.6146    0.006411    0.001766       
   LBFGS   141      4    0.126789    0.012394   0.001449  35.6190    0.004770    0.001548       
   LBFGS   142      4    0.125048    0.008478   0.001235  35.7039    0.002855    0.001181       
   LBFGS   143      4    0.124849    0.018212   0.001724  35.7685    0.007619    0.002055       
   LBFGS   144      4    0.124635    0.013260   0.001428  35.8215    0.006936    0.001773       
   LBFGS   145      4    0.124515    0.007479   0.000983  35.8316    0.002748    0.001147       
   LBFGS   146      4    0.124139    0.008629   0.001154  35.8831    0.004071    0.001310       
   LBFGS   147      4    0.123693    0.012660   0.001528  35.9486    0.007982    0.002144       
   LBFGS   148      4    0.122098    0.027253   0.002870  36.1783    0.007564    0.002232       
   LBFGS   149      4    0.121982    0.018416   0.001879  36.1707    0.004693    0.001495       
   LBFGS   150      4    0.121921    0.009785   0.001273  36.1652    0.003051    0.001089       
   LBFGS   151      4    0.121755    0.006373   0.000955  36.1474    0.002836    0.001004       
   LBFGS   152      4    0.121594    0.010297   0.001197  36.1391    0.002211    0.000917       

Possible intermediate minimum found at image(s): 1 
  => have a look at the .interp file.
  => it is often a good idea to divide the path calculation into smaller fragments. 

   LBFGS   153      4    0.121295    0.004958   0.000925  36.1340    0.002371    0.000929       
   LBFGS   154      4    0.120876    0.011125   0.001391  36.1529    0.003070    0.001177       
   LBFGS   155      4    0.120150    0.007444   0.001515  36.2111    0.002027    0.000933       
   LBFGS   156      4    0.118995    0.012594   0.002233  36.3543    0.006266    0.001788       
   LBFGS   157      4    0.119164    0.020053   0.002617  36.3873    0.018442    0.004191       
   LBFGS   158      4    0.118811    0.006508   0.001136  36.4162    0.003258    0.001069       
   LBFGS   159      4    0.118727    0.006191   0.001010  36.4449    0.002160    0.000860       
   LBFGS   160      4    0.118615    0.011641   0.001161  36.4885    0.005379    0.001535       
   LBFGS   161      4    0.118345    0.016958   0.001577  36.5521    0.003887    0.001321       
   LBFGS   162      4    0.118165    0.005461   0.000982  36.5800    0.002919    0.000926       
   LBFGS   163      4    0.117935    0.008747   0.001359  36.6116    0.005531    0.001282       
   LBFGS   164      4    0.117363    0.024324   0.002611  36.7027    0.011498    0.002762       
   LBFGS   165      4    0.116739    0.033008   0.003418  36.8179    0.014446    0.003607       
   LBFGS   166      4    0.116503    0.012217   0.001630  36.8108    0.005711    0.001489       
   LBFGS   167      4    0.116455    0.009413   0.001276  36.8059    0.003856    0.001142       
   LBFGS   168      4    0.116313    0.013455   0.001408  36.7807    0.004565    0.001554       
   LBFGS   169      4    0.116264    0.022819   0.001903  36.7656    0.012385    0.002650       
   LBFGS   170      4    0.116130    0.015677   0.001409  36.7587    0.007520    0.001687       
   LBFGS   171      4    0.115643    0.015086   0.001496  36.7283    0.003169    0.001209       
   LBFGS   172      4    0.115439    0.008784   0.001491  36.7322    0.010495    0.002579       
   LBFGS   173      4    0.114844    0.010459   0.001730  36.7631    0.007001    0.001846       
   LBFGS   174      4    0.115256    0.014843   0.002097  36.7945    0.026992    0.005630       
   LBFGS   175      4    0.114710    0.007344   0.001246  36.8193    0.008876    0.001904       
   LBFGS   176      4    0.114565    0.005889   0.001109  36.8576    0.003254    0.001042       
   LBFGS   177      4    0.114475    0.012299   0.001299  36.9046    0.008290    0.002027       
   LBFGS   178      4    0.114269    0.010077   0.001882  37.0092    0.013780    0.003331       
   LBFGS   179      4    0.113807    0.009248   0.001622  37.0714    0.003724    0.001218       
   LBFGS   180      4    0.113425    0.014944   0.002139  37.1498    0.012008    0.002381       
   LBFGS   181      4    0.113024    0.018408   0.002760  37.2520    0.021516    0.004372       
   LBFGS   182      4    0.112761    0.011737   0.001995  37.2309    0.010609    0.002708       
   LBFGS   183      4    0.112676    0.010140   0.001621  37.2129    0.009068    0.002313       

Possible intermediate minimum found at image(s): 1 
  => have a look at the .interp file.
  => it is often a good idea to divide the path calculation into smaller fragments. 

   LBFGS   184      4    0.112336    0.013846   0.001944  37.0995    0.006626    0.002104       
   LBFGS   185      4    0.112284    0.045218   0.003666  37.0388    0.012632    0.003905       
   LBFGS   186      4    0.112008    0.017995   0.001748  37.0384    0.005511    0.001648       
   LBFGS   187      4    0.111809    0.005870   0.001198  37.0146    0.005913    0.001462       
   LBFGS   188      4    0.111544    0.011897   0.001643  36.9961    0.004800    0.001618       
   LBFGS   189      4    0.110911    0.017394   0.002199  37.0047    0.004279    0.001430       
   LBFGS   190      4    0.110191    0.020484   0.002697  37.0538    0.010157    0.002593       
   LBFGS   191      4    0.110089    0.019917   0.002496  37.0745    0.008777    0.002421       
   LBFGS   192      4    0.109982    0.010875   0.001648  37.0922    0.007023    0.001985       
   LBFGS   193      4    0.109713    0.008446   0.001420  37.1606    0.005337    0.001587       
   LBFGS   194      4    0.109442    0.019611   0.001907  37.2210    0.002541    0.001214       
   LBFGS   195      4    0.108874    0.023472   0.002070  37.3538    0.002906    0.001241       
   LBFGS   196      4    0.107901    0.031907   0.004221  37.5487    0.013768    0.002841       
   LBFGS   197      4    0.107716    0.010829   0.001548  37.5369    0.003156    0.001289       
   LBFGS   198      4    0.107658    0.010024   0.001318  37.5274    0.002754    0.001137       
   LBFGS   199      4    0.107227    0.018566   0.002170  37.4582    0.004277    0.001553       
   LBFGS   200      4    0.106747    0.014922   0.002329  37.4159    0.006128    0.001865       
   LBFGS   201      4    0.105618    0.063335   0.005912  37.4387    0.006799    0.002208       
   LBFGS   202      4    0.105637    0.014329   0.001814  37.4355    0.002728    0.001285       
   LBFGS   203      4    0.105480    0.008636   0.001486  37.4574    0.002751    0.001277       
   LBFGS   204      4    0.104322    0.030870   0.003226  37.5679    0.002941    0.001528       
   LBFGS   205      4    0.102327    0.046494   0.004769  37.7713    0.003981    0.001882       
   LBFGS   206      4    0.102185    0.014667   0.002109  37.7763    0.003353    0.001540       
   LBFGS   207      4    0.102076    0.009882   0.001550  37.7853    0.003365    0.001482       
   LBFGS   208      4    0.101539    0.010435   0.001488  37.8503    0.003415    0.001485       
   LBFGS   209      4    0.100937    0.013517   0.002217  37.9357    0.003512    0.001610       
   LBFGS   210      4    0.098941    0.021689   0.003223  38.2389    0.004225    0.002027       
   LBFGS   211      4    0.098698    0.018641   0.002330  38.2470    0.004162    0.001818       
   LBFGS   212      4    0.098479    0.011334   0.001617  38.2565    0.004158    0.001719       
   LBFGS   213      4    0.097704    0.009737   0.001658  38.3012    0.004217    0.001786       
   LBFGS   214      4    0.096792    0.019529   0.002463  38.3635    0.005132    0.001966       

Possible intermediate minimum found at image(s): 1 
  => have a look at the .interp file.
  => it is often a good idea to divide the path calculation into smaller fragments. 

   LBFGS   215      4    0.095037    0.029365   0.003155  38.4960    0.006685    0.002193       
   LBFGS   216      4    0.092177    0.033425   0.003820  38.7389    0.008028    0.002415       
   LBFGS   217      4    0.091790    0.027712   0.003238  38.7705    0.006115    0.002257       
   LBFGS   218      4    0.091482    0.018877   0.002229  38.7969    0.005092    0.002129       
   LBFGS   219      4    0.090169    0.010460   0.001707  38.9352    0.005480    0.002181       
   LBFGS   220      4    0.088744    0.020744   0.002815  39.0899    0.005865    0.002577       
   LBFGS   221      4    0.085347    0.027219   0.003787  39.4514    0.007075    0.002938       
   LBFGS   222      4    0.081154    0.031330   0.004587  39.8851    0.008302    0.003528       
   LBFGS   223      4    0.080256    0.053140   0.005461  39.8976    0.009258    0.003465       
   LBFGS   224      4    0.079626    0.025104   0.002912  39.9039    0.007080    0.003070       
   LBFGS   225      4    0.077859    0.007959   0.001892  39.9734    0.007061    0.002898       
   LBFGS   226      4    0.076046    0.020604   0.002543  40.0784    0.007899    0.002996       
   LBFGS   227      4    0.070872    0.027270   0.003919  40.4430    0.011995    0.003631       
   LBFGS   228      4    0.069904    0.025993   0.004012  40.5042    0.009263    0.003550       
   LBFGS   229      4    0.069007    0.027510   0.003139  40.5630    0.008065    0.003423       
   LBFGS   230      4    0.064981    0.010271   0.002296  40.8855    0.008680    0.003437       
   LBFGS   231      4    0.061046    0.047663   0.005705  41.1149    0.008615    0.003616       
   LBFGS   232      4    0.057683    0.014980   0.003536  41.3507    0.011099    0.003738       
   LBFGS   233      4    0.055931    0.022154   0.003638  41.4861    0.010590    0.003656       
   LBFGS   234      4    0.049966    0.026237   0.005069  41.9906    0.010065    0.003791       
   LBFGS   235      4    0.049068    0.035948   0.004314  42.0783    0.009347    0.003565       
   LBFGS   236      4    0.048228    0.014974   0.002935  42.1648    0.009439    0.003521       
   LBFGS   237      4    0.044766    0.024146   0.003964  42.5818    0.009722    0.003671       
   LBFGS   238      4    0.043708    0.039025   0.003936  42.6585    0.009518    0.003445       
   LBFGS   239      4    0.042582    0.023639   0.003440  42.7536    0.009355    0.003460       
   LBFGS   240      4    0.038904    0.039459   0.004502  43.1245    0.008976    0.003729       
   LBFGS   241      4    0.037837    0.026279   0.003001  43.2752    0.009270    0.003326       
   LBFGS   242      4    0.036372    0.028478   0.003333  43.5031    0.009514    0.003410       
   LBFGS   243      4    0.033957    0.028248   0.003470  43.8778    0.009843    0.003460       
   LBFGS   244      4    0.032048    0.056884   0.005846  44.1305    0.009505    0.003699       
   LBFGS   245      4    0.030826    0.031803   0.003810  44.2982    0.009365    0.003585       

Possible intermediate minimum found at image(s): 1 
  => have a look at the .interp file.
  => it is often a good idea to divide the path calculation into smaller fragments. 

   LBFGS   246      4    0.028602    0.047285   0.004981  44.6476    0.009138    0.003587       
   LBFGS   247      4    0.027517    0.081250   0.007154  44.8411    0.009137    0.003114       
   LBFGS   248      4    0.027063    0.019252   0.002651  44.8958    0.009164    0.003111       
   LBFGS   249      4    0.025491    0.053895   0.004970  45.1781    0.009241    0.003383       
   LBFGS   250      4    0.022917    0.077012   0.006907  45.6179    0.010537    0.003610       
   LBFGS   251      4    0.019862    0.092335   0.008331  46.1358    0.013096    0.003893       
   LBFGS   252      4    0.019066    0.025512   0.003367  46.1867    0.013251    0.003628       
   LBFGS   253      4    0.018110    0.044095   0.004087  46.3079    0.013918    0.003634       
   LBFGS   254      4    0.015341    0.022914   0.003534  46.6906    0.016674    0.004258       
   LBFGS   255      5    0.019098    0.060174   0.006178  47.1098    0.046592    0.013839       
   LBFGS   256      5    0.015940    0.019509   0.003172  47.3681    0.031763    0.007630       
   LBFGS   257      5    0.015278    0.020491   0.003475  47.7772    0.023104    0.007478       
   LBFGS   258      5    0.015083    0.065204   0.006518  48.0515    0.032735    0.009359       
   LBFGS   259      5    0.015126    0.025310   0.003723  48.3360    0.025815    0.008398       
   LBFGS   260      4    0.016768    0.026493   0.004205  48.7036    0.061863    0.013845       
   LBFGS   261      4    0.016768    0.026496   0.004206  48.7036    0.061863    0.013845       
   LBFGS   262      4    0.016476    0.058700   0.006243  48.8782    0.036010    0.008708       
   LBFGS   263      4    0.017980    0.015679   0.003067  49.1436    0.023850    0.006451       
   LBFGS   264      4    0.018738    0.027373   0.004602  49.5244    0.026885    0.006756       
   LBFGS   265      4    0.019123    0.034726   0.004654  49.9401    0.019495    0.005500       
   LBFGS   266      4    0.018498    0.023286   0.004115  50.1476    0.011331    0.003941       
   LBFGS   267      4    0.018069    0.026805   0.004694  50.3963    0.013777    0.004062       
   LBFGS   268      4    0.017487    0.030142   0.004832  50.6743    0.017203    0.004244       
   LBFGS   269      4    0.016533    0.025820   0.004092  50.7504    0.017488    0.003885       
   LBFGS   270      4    0.015997    0.029625   0.005037  50.8366    0.018823    0.004347       
   LBFGS   271      4    0.014785    0.025299   0.003813  50.9280    0.008157    0.002697       
   LBFGS   272      4    0.014308    0.011981   0.002456  50.8556    0.006401    0.001803       
   LBFGS   273      4    0.014308    0.011981   0.002456  50.8556    0.006401    0.001803       
   LBFGS   274      4    0.014139    0.017714   0.002565  50.8200    0.006401    0.001673       
   LBFGS   275      4    0.014139    0.017714   0.002565  50.8200    0.006401    0.001673       
   LBFGS   276      4    0.014042    0.024330   0.003115  50.7689    0.006363    0.001653       

Possible intermediate minimum found at image(s): 1 
  => have a look at the .interp file.
  => it is often a good idea to divide the path calculation into smaller fragments. 

   LBFGS   277      4    0.014042    0.024330   0.003115  50.7689    0.006363    0.001653       
   LBFGS   278      4    0.013972    0.031486   0.003768  50.7277    0.006336    0.001644       
   LBFGS   279      4    0.013972    0.031486   0.003768  50.7277    0.006336    0.001644       
   LBFGS   280      8    0.014284    0.038543   0.004011  50.7056    0.019136    0.006649       
   LBFGS   281      8    0.016593    0.046478   0.004790  50.6733    0.020206    0.006949       
   LBFGS   282      8    0.015942    0.051585   0.005378  50.5884    0.018631    0.006325       
   LBFGS   283      8    0.016490    0.043810   0.005028  50.5116    0.019347    0.007217       
   LBFGS   284      8    0.015781    0.047840   0.005417  50.4500    0.017827    0.006155       
   LBFGS   285      8    0.017356    0.044868   0.005144  50.3869    0.039204    0.010561       
   LBFGS   286      8    0.015523    0.042287   0.005263  50.3401    0.016441    0.006432       
   LBFGS   287      8    0.017775    0.042220   0.005104  50.3001    0.058449    0.013749       
   LBFGS   288      8    0.014441    0.044091   0.004812  50.2621    0.013599    0.005960       
   LBFGS   289      8    0.014502    0.041754   0.004454  50.2296    0.033373    0.008620       
   LBFGS   290      4    0.013099    0.039013   0.004292  50.2016    0.006627    0.001733       
   LBFGS   291      4    0.013003    0.035379   0.004198  50.1754    0.006663    0.001744       
   LBFGS   292      4    0.012984    0.034429   0.004015  50.0502    0.006654    0.001741       
   LBFGS   293      4    0.012984    0.034429   0.004015  50.0502    0.006654    0.001741       
   LBFGS   294      4    0.012966    0.033625   0.004093  49.9249    0.006645    0.001738       
   LBFGS   295      8    0.013749    0.033625   0.003384  49.9249    0.025709    0.007250       
   LBFGS   296      8    0.014311    0.034377   0.003987  49.9296    0.026878    0.007517       
   LBFGS   297      8    0.012645    0.029914   0.002985  49.9176    0.017391    0.005543       
   LBFGS   298      8    0.012080    0.027532   0.003892  49.8924    0.022671    0.007391       
   LBFGS   299      8    0.010299    0.021194   0.002291  49.8920    0.014695    0.004691       
   LBFGS   300      4    0.012498    0.016078   0.002526  49.8832    0.006528    0.001872       
   LBFGS   301      4    0.012322    0.014034   0.003006  49.8715    0.006568    0.001910       
   LBFGS   302      4    0.012298    0.017163   0.002834  49.7000    0.006565    0.001858       
   LBFGS   303      4    0.012278    0.023836   0.003187  49.5414    0.006558    0.001849       
   LBFGS   304      4    0.012257    0.034378   0.003707  49.3906    0.006553    0.001823       
   LBFGS   305      4    0.012257    0.034378   0.003706  49.3906    0.006553    0.001823       
   LBFGS   306      4    0.012240    0.044792   0.004452  49.2499    0.006548    0.001810       
   LBFGS   307      4    0.012240    0.044792   0.004452  49.2499    0.006548    0.001810       

Possible intermediate minimum found at image(s): 1 7 
  => have a look at the .interp file.
  => it is often a good idea to divide the path calculation into smaller fragments. 

   LBFGS   308      4    0.012225    0.055089   0.005281  49.1195    0.006544    0.001801       
   LBFGS   309      4    0.012211    0.057584   0.005590  49.0014    0.006537    0.001798       
   LBFGS   310      8    0.024436    0.013439   0.001720  48.8902    0.082793    0.019750       
   LBFGS   311      8    0.021619    0.013294   0.001686  48.8808    0.073016    0.017812       
   LBFGS   312      8    0.017124    0.013349   0.001868  48.8552    0.080309    0.018023       
   LBFGS   313      8    0.006877    0.012565   0.001779  48.9019    0.029344    0.009679       
   LBFGS   314      8    0.000119    0.009595   0.002066  48.9550    0.029648    0.008274       
   LBFGS   315      4    0.011154    0.036211   0.004881  48.8939    0.006951    0.001922       
   LBFGS   316      4    0.010807    0.063545   0.007628  48.7849    0.007003    0.002024       
   LBFGS   317      4    0.010376    0.090113   0.010521  48.6546    0.007063    0.002150       
   LBFGS   318      4    0.010352    0.070747   0.007820  48.5833    0.007046    0.001993       
   LBFGS   319      4    0.010329    0.050590   0.005193  48.5582    0.007019    0.001885       
   LBFGS   320      4    0.010252    0.032393   0.003661  48.4628    0.006855    0.001810       
   LBFGS   321      4    0.010181    0.039909   0.003921  48.3926    0.006698    0.001776       
   LBFGS   322      4    0.010102    0.053720   0.004868  48.3198    0.006526    0.001743       
   LBFGS   323      4    0.010023    0.081079   0.007312  48.2465    0.006362    0.001735       
   LBFGS   324      4    0.009971    0.044117   0.004476  48.2093    0.006262    0.001680       
   LBFGS   325      4    0.009876    0.033665   0.003595  48.1445    0.006073    0.001619       
   LBFGS   326      4    0.009782    0.039050   0.004000  48.0981    0.005884    0.001601       
   LBFGS   327      4    0.009676    0.048757   0.004584  48.0458    0.005682    0.001551       
   LBFGS   328      4    0.009588    0.057609   0.005384  47.9976    0.005538    0.001552       
   LBFGS   329      4    0.009520    0.033146   0.003843  47.9734    0.005428    0.001480       
   LBFGS   330      4    0.009392    0.035401   0.003541  47.9300    0.005211    0.001410       
   LBFGS   331      4    0.009285    0.042403   0.003596  47.9099    0.005035    0.001379       
   LBFGS   332      4    0.009145    0.051468   0.003755  47.8773    0.004822    0.001327       
   LBFGS   333      4    0.008992    0.048642   0.003866  47.8490    0.004589    0.001286       
   LBFGS   334      4    0.008895    0.039346   0.004065  47.8276    0.004482    0.001271       
   LBFGS   335      4    0.008820    0.029096   0.003173  47.8215    0.004385    0.001233       
   LBFGS   336      4    0.008639    0.030851   0.003181  47.8105    0.004150    0.001180       
   LBFGS   337      4    0.008543    0.030786   0.002872  47.8171    0.004045    0.001159       
   LBFGS   338      4    0.008423    0.040662   0.002874  47.8217    0.003916    0.001130       

Possible intermediate minimum found at image(s): 1 7 
  => have a look at the .interp file.
  => it is often a good idea to divide the path calculation into smaller fragments. 

   LBFGS   339      4    0.008215    0.044199   0.002987  47.8352    0.003688    0.001084       
   LBFGS   340      4    0.008106    0.032448   0.003329  47.8433    0.003593    0.001065       
   LBFGS   341      4    0.008020    0.030080   0.002867  47.8584    0.003518    0.001048       
   LBFGS   342      4    0.007779    0.028011   0.002594  47.9073    0.003299    0.001004       
   LBFGS   343      4    0.007675    0.034900   0.002902  47.9427    0.003221    0.000988       
   LBFGS   344      4    0.007571    0.035809   0.002313  47.9746    0.003146    0.000971       
   LBFGS   345      4    0.007287    0.031929   0.002470  48.0732    0.002927    0.000928       
   LBFGS   346      4    0.007219    0.031414   0.002442  48.1025    0.002880    0.000919       
   LBFGS   347      4    0.007149    0.021869   0.002411  48.1358    0.002836    0.000909       
   LBFGS   348      4    0.006816    0.069614   0.004990  48.3129    0.002611    0.000864       
   LBFGS   349      4    0.006766    0.016110   0.001596  48.3523    0.002587    0.000857       
   LBFGS   350      4    0.006700    0.024903   0.001608  48.3965    0.002550    0.000848       
   LBFGS   351      4    0.006549    0.019524   0.001756  48.5032    0.002459    0.000830       
   LBFGS   352      4    0.006549    0.019525   0.001756  48.5032    0.002459    0.000830       
   LBFGS   353      4    0.006467    0.038923   0.002990  48.5658    0.002405    0.000820       
   LBFGS   354      4    0.006376    0.031371   0.002855  48.6404    0.002372    0.000808       
