
                                 *****************
                                 * O   R   C   A *
                                 *****************

                                            #,                                       
                                            ###                                      
                                            ####                                     
                                            #####                                    
                                            ######                                   
                                           ########,                                 
                                     ,,################,,,,,                         
                               ,,#################################,,                 
                          ,,##########################################,,             
                       ,#########################################, ''#####,          
                    ,#############################################,,   '####,        
                  ,##################################################,,,,####,       
                ,###########''''           ''''###############################       
              ,#####''   ,,,,##########,,,,          '''####'''          '####       
            ,##' ,,,,###########################,,,                        '##       
           ' ,,###''''                  '''############,,,                           
         ,,##''                                '''############,,,,        ,,,,,,###''
      ,#''                                            '''#######################'''  
     '                                                          ''''####''''         
             ,#######,   #######,   ,#######,      ##                                
            ,#'     '#,  ##    ##  ,#'     '#,    #''#        ######   ,####,        
            ##       ##  ##   ,#'  ##            #'  '#       #        #'  '#        
            ##       ##  #######   ##           ,######,      #####,   #    #        
            '#,     ,#'  ##    ##  '#,     ,#' ,#      #,         ##   #,  ,#        
             '#######'   ##     ##  '#######'  #'      '#     #####' # '####'        



                  #######################################################
                  #                        -***-                        #
                  #          Department of theory and spectroscopy      #
                  #    Directorship and core code : Frank Neese         #
                  #        Max Planck Institute fuer Kohlenforschung    #
                  #                Kaiser Wilhelm Platz 1               #
                  #                 D-45470 Muelheim/Ruhr               #
                  #                      Germany                        #
                  #                                                     #
                  #                  All rights reserved                #
                  #                        -***-                        #
                  #######################################################


                         Program Version 5.0.4 -  RELEASE  -


 With contributions from (in alphabetic order):
   Daniel Aravena         : Magnetic Suceptibility
   Michael Atanasov       : Ab Initio Ligand Field Theory (pilot matlab implementation)
   Alexander A. Auer      : GIAO ZORA, VPT2 properties, NMR spectrum
   Ute Becker             : Parallelization
   Giovanni Bistoni       : ED, misc. LED, open-shell LED, HFLD
   Martin Brehm           : Molecular dynamics
   Dmytro Bykov           : SCF Hessian
   Vijay G. Chilkuri      : MRCI spin determinant printing, contributions to CSF-ICE
   Dipayan Datta          : RHF DLPNO-CCSD density
   Achintya Kumar Dutta   : EOM-CC, STEOM-CC
   Dmitry Ganyushin       : Spin-Orbit,Spin-Spin,Magnetic field MRCI
   Miquel Garcia          : C-PCM and meta-GGA Hessian, CC/C-PCM, Gaussian charge scheme
   Yang Guo               : DLPNO-NEVPT2, F12-NEVPT2, CIM, IAO-localization
   Andreas Hansen         : Spin unrestricted coupled pair/coupled cluster methods
   Benjamin Helmich-Paris : MC-RPA, TRAH-SCF, COSX integrals
   Lee Huntington         : MR-EOM, pCC
   Robert Izsak           : Overlap fitted RIJCOSX, COSX-SCS-MP3, EOM
   Marcus Kettner         : VPT2
   Christian Kollmar      : KDIIS, OOCD, Brueckner-CCSD(T), CCSD density, CASPT2, CASPT2-K
   Simone Kossmann        : Meta GGA functionals, TD-DFT gradient, OOMP2, MP2 Hessian
   Martin Krupicka        : Initial AUTO-CI
   Lucas Lang             : DCDCAS
   Marvin Lechner         : AUTO-CI (C++ implementation), FIC-MRCC
   Dagmar Lenk            : GEPOL surface, SMD
   Dimitrios Liakos       : Extrapolation schemes; Compound Job, initial MDCI parallelization
   Dimitrios Manganas     : Further ROCIS development; embedding schemes
   Dimitrios Pantazis     : SARC Basis sets
   Anastasios Papadopoulos: AUTO-CI, single reference methods and gradients
   Taras Petrenko         : DFT Hessian,TD-DFT gradient, ASA, ECA, R-Raman, ABS, FL, XAS/XES, NRVS
   Peter Pinski           : DLPNO-MP2, DLPNO-MP2 Gradient
   Christoph Reimann      : Effective Core Potentials
   Marius Retegan         : Local ZFS, SOC
   Christoph Riplinger    : Optimizer, TS searches, QM/MM, DLPNO-CCSD(T), (RO)-DLPNO pert. Triples
   Tobias Risthaus        : Range-separated hybrids, TD-DFT gradient, RPA, STAB
   Michael Roemelt        : Original ROCIS implementation
   Masaaki Saitow         : Open-shell DLPNO-CCSD energy and density
   Barbara Sandhoefer     : DKH picture change effects
   Avijit Sen             : IP-ROCIS
   Kantharuban Sivalingam : CASSCF convergence, NEVPT2, FIC-MRCI
   Bernardo de Souza      : ESD, SOC TD-DFT
   Georgi Stoychev        : AutoAux, RI-MP2 NMR, DLPNO-MP2 response
   Willem Van den Heuvel  : Paramagnetic NMR
   Boris Wezisla          : Elementary symmetry handling
   Frank Wennmohs         : Technical directorship


 We gratefully acknowledge several colleagues who have allowed us to
 interface, adapt or use parts of their codes:
   Stefan Grimme, W. Hujo, H. Kruse, P. Pracht,  : VdW corrections, initial TS optimization,
                  C. Bannwarth, S. Ehlert          DFT functionals, gCP, sTDA/sTD-DF
   Ed Valeev, F. Pavosevic, A. Kumar             : LibInt (2-el integral package), F12 methods
   Garnet Chan, S. Sharma, J. Yang, R. Olivares  : DMRG
   Ulf Ekstrom                                   : XCFun DFT Library
   Mihaly Kallay                                 : mrcc  (arbitrary order and MRCC methods)
   Jiri Pittner, Ondrej Demel                    : Mk-CCSD
   Frank Weinhold                                : gennbo (NPA and NBO analysis)
   Christopher J. Cramer and Donald G. Truhlar   : smd solvation model
   Lars Goerigk                                  : TD-DFT with DH, B97 family of functionals
   V. Asgeirsson, H. Jonsson                     : NEB implementation
   FAccTs GmbH                                   : IRC, NEB, NEB-TS, DLPNO-Multilevel, CI-OPT
                                                   MM, QMMM, 2- and 3-layer-ONIOM, Crystal-QMMM,
                                                   LR-CPCM, SF, NACMEs, symmetry and pop. for TD-DFT,
                                                   nearIR, NL-DFT gradient (VV10), updates on ESD,
                                                   ML-optimized integration grids
   S Lehtola, MJT Oliveira, MAL Marques          : LibXC Library
   Liviu Ungur et al                             : ANISO software


 Your calculation uses the libint2 library for the computation of 2-el integrals
 For citations please refer to: http://libint.valeyev.net

 Your ORCA version has been built with support for libXC version: 5.1.0
 For citations please refer to: https://tddft.org/programs/libxc/

 This ORCA versions uses:
   CBLAS   interface :  Fast vector & matrix operations
   LAPACKE interface :  Fast linear algebra routines
   SCALAPACK package :  Parallel linear algebra routines
   Shared memory     :  Shared parallel matrices
   BLAS/LAPACK       :  OpenBLAS 0.3.15  USE64BITINT DYNAMIC_ARCH NO_AFFINITY SkylakeX SINGLE_THREADED
        Core in use  :  SkylakeX
   Copyright (c) 2011-2014, The OpenBLAS Project




***************************************
The coordinates will be read from file: reactants.xyz
***************************************


Your calculation utilizes the SMD solvation module
Please cite in your paper:
A.V. Marenich, C.J. Cramer, D.G. Truhlar J. Phys. Chem. B, 113, (2009), 6378 

XCFun DFT library Copyright 2009-2010 Ulf Ekstrom and contributors.
See http://admol.org/xcfun for more information.
This is free software; see the source code for copying conditions.
There is ABSOLUTELY NO WARRANTY; not even for MERCHANTABILITY or FITNESS FOR A PARTICULAR PURPOSE.
For details see the documentation.
Scientific users of this library should cite U. Ekstrom, L. Visscher, R. Bast, A. J. Thorvaldsen and K. Ruud;
J.Chem.Theor.Comp. 2010, DOI: 10.1021/ct100117s
XCFun Version 0.99 

================================================================================

----- Orbital basis set information -----
Your calculation utilizes the basis: 6-311++G**
   H, Li - Ne  : R. Krishnan, J. S. Binkley, R. Seeger and J. A. Pople, J. Chem. Phys. 72, 650 (1980).
   Na - Ar     : A. D. McLean and G. S. Chandler J. Chem. Phys. 72, 5639, (1980).
   K  - Ca     : J.-P. Blaudeau, M. P. McGrath, L. A. Curtiss and L. Radom, J. Chem. Phys. 107, 5016 (1997).
   Ga - Kr     : L. A. Curtiss, M. P. McGrath, J.-P. Blandeau, N. E. Davis, R. C. Binning and L. Radom, J. Chem. Phys. 103, 6104 (1995).
   Pol./Diff.
   H, Li - Cl  : T. Clark, J. Chandrasekhar and P. v. R. Schleyer, J. Comp. Chem. 4, 294 (1983).
   H - Ne      : M. J. Frisch, J. A. Pople and J. S. Binkley, J. Chem. Phys. 80, 3265 (1984).

----- AuxJ basis set information -----
Your calculation utilizes the auxiliary basis: def2/J
   F. Weigend, Phys. Chem. Chem. Phys. 8, 1057 (2006).

================================================================================
                                        WARNINGS
                       Please study these warnings very carefully!
================================================================================


WARNING: Geometry Optimization
  ===> : Switching off AutoStart
         For restart on a previous wavefunction, please use MOREAD

INFO   : the flag for use of the SHARK integral package has been found!

================================================================================
                                       INPUT FILE
================================================================================
NAME = structure_opt.inp
|  1> !wb97x 6-311++G** OPT CPCM(WATER)
|  2> %maxcore  3500
|  3> %pal
|  4> nprocs 24
|  5> end
|  6> %cpcm
|  7> smd true
|  8> SMDsolvent "water"
|  9> end
| 10> %geom
| 11> ConstrainFragments {1} end
| 12> ConstrainFragments {4} end
| 13> ConnectFragments
| 14> { 1 2 C 5 7 }
| 15> { 1 2 C 0 9 }
| 16> { 2 3 C 13 5 }
| 17> { 3 4 C 13 17 }
| 18> end
| 19> end
| 20> * XYZfile -1 1 reactants.xyz
| 21> %geom
| 22> Fragments
| 23> 1 {0:5} end
| 24> 2 {6:12} end
| 25> 3 {13:16} end
| 26> 4 {17} end
| 27> end
| 28> end
| 29> 
| 30>                          ****END OF INPUT****
================================================================================

                       *****************************
                       * Geometry Optimization Run *
                       *****************************

Geometry optimization settings:
Update method            Update   .... BFGS
Choice of coordinates    CoordSys .... Z-matrix Internals
Initial Hessian          InHess   .... Almoef's Model

Convergence Tolerances:
Energy Change            TolE     ....  5.0000e-06 Eh
Max. Gradient            TolMAXG  ....  3.0000e-04 Eh/bohr
RMS Gradient             TolRMSG  ....  1.0000e-04 Eh/bohr
Max. Displacement        TolMAXD  ....  4.0000e-03 bohr
RMS Displacement         TolRMSD  ....  2.0000e-03 bohr
Strict Convergence                ....  False
------------------------------------------------------------------------------
                        ORCA OPTIMIZATION COORDINATE SETUP
------------------------------------------------------------------------------

The optimization will be done in new redundant internal coordinates
Making redundant internal coordinates   ...  (new redundants) done
Evaluating the initial hessian          ...  (Almloef) done
Evaluating the coordinates              ...  done
Calculating the B-matrix                .... done
Calculating the G-matrix                .... done
Diagonalizing the G-matrix              .... done
Imposing constraints:
 Iter   0:  RMS(Cart)=    0.0000000000 RMS(Int)=    0.0000000000
CONVERGED
Small eigenvalue found = 9.674e-03
The first mode is                       ....   72
The number of degrees of freedom        ....   48
Storing new coordinates                 .... done

    -----------------------------------------------------------------
                    Redundant Internal Coordinates


    -----------------------------------------------------------------
         Definition                    Initial Value    Approx d2E/dq
    -----------------------------------------------------------------
      1. B(N   1,C   0)                  1.3611         0.622347   
      2. B(C   2,N   1)                  1.3582         0.628875   
      3. B(C   3,C   2)                  1.3949         0.613658   
      4. B(C   4,C   3)                  1.3934         0.616971   
      5. B(C   5,C   0)                  1.4122         0.575774   
      6. B(C   5,C   4)                  1.4061         0.588917   
      7. B(O   7,C   5)                  2.3435         0.016853 C 
      8. B(O   7,N   6)                  1.2480         0.844503   
      9. B(O   8,N   6)                  1.3769         0.525866   
     10. B(F   9,C   0)                  1.3500         0.602260 C 
     11. B(F   9,N   6)                  2.8678         0.002044   
     12. B(F   9,O   7)                  2.5821         0.005837   
     13. B(H  11,H  10)                  2.4818         0.000415   
     14. B(H  12,O   8)                  2.5152         0.001717   
     15. B(H  12,H  11)                  2.4663         0.000439   
     16. B(H  12,N   6)                  2.7029         0.000861   
     17. B(C  13,O   7)                  6.7471         0.000000 C 
     18. B(H  14,C  13)                  1.0942         0.354532   
     19. B(H  15,C  13)                  1.0932         0.355943   
     20. B(H  16,C  13)                  1.0938         0.355048   
     21. B(S  17,C  13)                  1.8032         0.369230 C 
     22. A(N   1,C   0,C   5)          120.1571         0.425830   
     23. A(N   1,C   0,F   9)          118.6704         0.424592 C 
     24. A(C   5,C   0,F   9)          121.1725         0.421471 C 
     25. A(C   0,N   1,C   2)          121.9524         0.429796   
     26. A(N   1,C   2,C   3)          120.0262         0.431531   
     27. A(C   2,C   3,C   4)          119.3498         0.432882   
     28. A(C   3,C   4,C   5)          120.4718         0.429694   
     29. A(C   0,C   5,O   7)           94.5313         0.237820 C 
     30. A(C   0,C   5,C   4)          118.0425         0.424407   
     31. A(C   4,C   5,O   7)          147.4261         0.238582 C 
     32. A(O   7,N   6,F   9)           64.2090         0.186619   
     33. A(O   8,N   6,H  12)           67.2752         0.152046   
     34. A(O   7,N   6,H  12)          174.2234         0.159181   
     35. A(F   9,N   6,H  12)          110.0144         0.106848   
     36. A(O   7,N   6,O   8)          118.5014         0.433822   
     37. A(N   6,O   7,F   9)           89.9947         0.212791   
     38. A(C   5,O   7,C  13)          153.7436         0.090705   
     39. A(C   5,O   7,N   6)           31.7456         0.248611 C 
     40. A(C   5,O   7,F   9)           58.2491         0.140475 C 
     41. A(N   6,O   7,C  13)          123.7899         0.093101 C 
     42. A(F   9,O   7,C  13)          143.6862         0.090323 C 
     43. A(N   6,O   8,H  12)           82.3972         0.162696   
     44. A(N   6,F   9,O   7)           25.7962         0.120482   
     45. A(C   0,F   9,O   7)           86.0471         0.203997 C 
     46. A(C   0,F   9,N   6)           60.2509         0.179684 C 
     47. A(H  10,H  11,H  12)          119.7063         0.095112   
     48. A(N   6,H  12,O   8)           30.3275         0.103999   
     49. A(N   6,H  12,H  11)          126.7169         0.097913   
     50. A(O   8,H  12,H  11)          157.0445         0.099419   
     51. A(H  14,C  13,H  16)          108.8969         0.289487   
     52. A(H  15,C  13,H  16)          109.0761         0.289667   
     53. A(O   7,C  13,S  17)           12.5364         0.092701   
     54. A(H  16,C  13,S  17)          109.8817         0.339371 C 
     55. A(O   7,C  13,H  15)          101.3648         0.091966 C 
     56. A(O   7,C  13,H  16)          105.6024         0.091964 C 
     57. A(H  14,C  13,S  17)          109.9743         0.339289 C 
     58. A(H  15,C  13,S  17)          109.9712         0.339514 C 
     59. A(O   7,C  13,H  14)          122.2144         0.091963 C 
     60. A(H  14,C  13,H  15)          109.0148         0.289601   
     61. D(C   2,N   1,C   0,C   5)     -0.1041         0.028432   
     62. D(C   2,N   1,C   0,F   9)    179.9112         0.028432 C 
     63. D(C   3,C   2,N   1,C   0)      0.1066         0.025783   
     64. D(C   4,C   3,C   2,N   1)     -0.0956         0.020965   
     65. D(C   5,C   4,C   3,C   2)      0.0854         0.021202   
     66. D(O   7,C   5,C   0,N   1)    179.9933         0.022761 C 
     67. D(O   7,C   5,C   4,C   3)   -179.9036         0.021656 C 
     68. D(O   7,C   5,C   0,F   9)     -0.0223         0.022761 C 
     69. D(C   4,C   5,C   0,N   1)      0.0896         0.022761   
     70. D(C   4,C   5,C   0,F   9)   -179.9260         0.022761 C 
     71. D(C   0,C   5,C   4,C   3)     -0.0818         0.021656   
     72. D(F   9,O   7,C   5,C   0)      0.0117         0.001519 C 
     73. D(F   9,O   7,C   5,C   4)    179.8539         0.001519 C 
     74. D(C  13,O   7,N   6,F   9)    165.8127         0.085936 C 
     75. D(C  13,O   7,C   5,C   0)    152.5695         0.001519   
     76. D(C  13,O   7,C   5,C   4)    -27.5883         0.001519   
     77. D(N   6,O   7,C   5,C   4)     -0.1099         0.001519 C 
     78. D(C  13,O   7,N   6,O   8)    -14.1941         0.085936 C 
     79. D(F   9,O   7,N   6,H  12)      0.1568         0.085936   
     80. D(C   5,O   7,N   6,O   8)   -179.9761         0.085936 C 
     81. D(C   5,O   7,N   6,H  12)      0.1876         0.085936 C 
     82. D(F   9,O   7,N   6,O   8)    179.9932         0.085936   
     83. D(C   5,O   7,N   6,F   9)      0.0308         0.085936 C 
     84. D(N   6,O   7,C   5,C   0)   -179.9521         0.001519 C 
     85. D(C  13,O   7,N   6,H  12)    165.9695         0.085936 C 
     86. D(H  12,O   8,N   6,O   7)   -179.9821         0.025649   
     87. D(O   7,F   9,N   6,H  12)   -179.9832         0.001500   
     88. D(N   6,F   9,C   0,C   5)      0.0236         0.032536 C 
     89. D(O   7,F   9,C   0,N   1)   -179.9952         0.032536 C 
     90. D(N   6,F   9,C   0,N   1)   -179.9918         0.032536 C 
     91. D(O   7,F   9,C   0,C   5)      0.0202         0.032536 C 
     92. D(C   0,F   9,N   6,O   7)   -179.9922         0.001500 C 
     93. D(O   7,F   9,O   8,H  12)   -179.9897         0.001500   
     94. D(N   6,F   9,O   7,C   5)     -0.0190         0.001503 C 
     95. D(N   6,F   9,O   7,C  13)   -159.8821         0.001503 C 
     96. D(C   0,F   9,O   7,N   6)      0.0068         0.001503 C 
     97. D(C   0,F   9,O   7,C   5)     -0.0123         0.001503 C 
     98. D(C   0,F   9,N   6,H  12)      0.0246         0.001500 C 
     99. D(C   0,F   9,O   7,C  13)   -159.8753         0.001503   
    100. D(C   0,F   9,O   8,H  12)      0.0232         0.001500 C 
    101. D(O   8,H  12,N   6,O   7)    179.8441         0.001501   
    102. D(N   6,H  12,H  11,H  10)      0.0466         0.001502   
    103. D(H  11,H  12,N   6,O   7)     -0.1748         0.001501   
    104. D(H  11,H  12,N   6,O   8)    179.9811         0.001501   
    105. D(H  11,H  12,N   6,F   9)     -0.0245         0.001501   
    106. D(O   8,H  12,N   6,F   9)    179.9943         0.001501   
    107. D(H  11,H  12,O   8,N   6)     -0.0388         0.001502   
    108. D(O   8,H  12,H  11,H  10)      0.0710         0.001502   
    109. D(H  14,C  13,O   7,N   6)   -173.6242         0.001500 C 
    110. D(S  17,C  13,O   7,F   9)     -4.8531         0.001500   
    111. D(H  14,C  13,O   7,C   5)   -156.6394         0.001500   
    112. D(H  15,C  13,O   7,N   6)     65.0812         0.001500 C 
    113. D(H  15,C  13,O   7,F   9)   -139.3665         0.001500 C 
    114. D(H  15,C  13,O   7,C   5)     82.0659         0.001500   
    115. D(H  16,C  13,O   7,N   6)    -48.6372         0.001500 C 
    116. D(H  16,C  13,O   7,F   9)    106.9151         0.001500 C 
    117. D(H  16,C  13,O   7,C   5)    -31.6525         0.001500   
    118. D(H  14,C  13,O   7,F   9)    -18.0718         0.001500 C 
    119. D(S  17,C  13,O   7,N   6)   -160.4054         0.001500   
    120. D(S  17,C  13,O   7,C   5)   -143.4207         0.001500   
    -----------------------------------------------------------------

Number of atoms                         .... 18
Number of degrees of freedom            .... 120

         *************************************************************
         *                GEOMETRY OPTIMIZATION CYCLE   1            *
         *************************************************************
---------------------------------
CARTESIAN COORDINATES (ANGSTROEM)
---------------------------------
  C      0.000000    0.000000    1.820000
  N      1.178000   -0.196000    2.473000
  C      1.255000   -0.207000    3.829000
  C      0.105000   -0.016000    4.595000
  C     -1.116000    0.187000    3.955000
  C     -1.192000    0.198000    2.551000
  N     -2.456000    0.409000    1.893000
  O     -2.541000    0.423000    0.648000
  O     -3.602000    0.600000    2.632000
  F      0.000000    0.000000    0.470000
  H      2.209000   -0.366000    4.313000
  H      0.163000   -0.026000    5.676000
  H     -2.005000    0.335000    4.557000
  C     -8.372000    0.000000   -2.720000
  H     -8.411000   -0.088000   -3.810000
  H     -8.862000    0.930000   -2.420000
  H     -8.907000   -0.845000   -2.277000
  S     -6.657000    0.000000   -2.163000

----------------------------
CARTESIAN COORDINATES (A.U.)
----------------------------
  NO LB      ZA    FRAG     MASS         X           Y           Z
   0 C     6.0000    1    12.011    0.000000    0.000000    3.439302
   1 N     7.0000    1    14.007    2.226097   -0.370386    4.673293
   2 C     6.0000    1    12.011    2.371606   -0.391173    7.235761
   3 C     6.0000    1    12.011    0.198421   -0.030236    8.683292
   4 C     6.0000    1    12.011   -2.108934    0.353379    7.473867
   5 C     6.0000    1    12.011   -2.252554    0.374166    4.820691
   6 N     7.0000    2    14.007   -4.641167    0.772898    3.577252
   7 O     8.0000    2    15.999   -4.801794    0.799354    1.224543
   8 O     8.0000    2    15.999   -6.806794    1.133836    4.973759
   9 F     9.0000    2    18.998    0.000000    0.000000    0.888171
  10 H     1.0000    2     1.008    4.174405   -0.691640    8.150389
  11 H     1.0000    2     1.008    0.308025   -0.049133   10.726086
  12 H     1.0000    2     1.008   -3.788901    0.633058    8.611482
  13 C     6.0000    3    12.011  -15.820787    0.000000   -5.140055
  14 H     1.0000    3     1.008  -15.894487   -0.166296   -7.199857
  15 H     1.0000    3     1.008  -16.746753    1.757445   -4.573137
  16 H     1.0000    3     1.008  -16.831791   -1.596819   -4.302906
  17 S    16.0000    4    32.060  -12.579907    0.000000   -4.087478

----------------------------------------------
CARTESIAN COORDINATES OF FRAGMENTS (ANGSTROEM)
----------------------------------------------

 FRAGMENT 1 
  C     0.000000    0.000000    1.820000
  N     1.178000   -0.196000    2.473000
  C     1.255000   -0.207000    3.829000
  C     0.105000   -0.016000    4.595000
  C    -1.116000    0.187000    3.955000
  C    -1.192000    0.198000    2.551000

 FRAGMENT 2 
  N    -2.456000    0.409000    1.893000
  O    -2.541000    0.423000    0.648000
  O    -3.602000    0.600000    2.632000
  F     0.000000    0.000000    0.470000
  H     2.209000   -0.366000    4.313000
  H     0.163000   -0.026000    5.676000
  H    -2.005000    0.335000    4.557000

 FRAGMENT 3 
  C    -8.372000    0.000000   -2.720000
  H    -8.411000   -0.088000   -3.810000
  H    -8.862000    0.930000   -2.420000
  H    -8.907000   -0.845000   -2.277000

 FRAGMENT 4 
  S    -6.657000    0.000000   -2.163000

--------------------------------
INTERNAL COORDINATES (ANGSTROEM)
--------------------------------
 C      0   0   0     0.000000000000     0.00000000     0.00000000
 N      1   0   0     1.361069065110     0.00000000     0.00000000
 C      2   1   0     1.358228993948   121.95243626     0.00000000
 C      3   2   1     1.394896770374   120.02620694     0.10655554
 C      4   3   2     1.393431017309   119.34983770   359.90435571
 C      5   4   3     1.406098502951   120.47178172     0.08537773
 N      6   5   4     1.440548853736   120.30882193   180.03842131
 O      7   6   5     1.247976762604   121.13704526   179.93147861
 O      7   6   5     1.376923382037   120.36156660   359.90709941
 F      1   2   3     1.350000000000   118.67037638   179.91115691
 H      3   2   1     1.081504969938   119.86701156   179.98746005
 H      4   3   2     1.082601034546   120.19197482   179.89186186
 H      5   4   3     1.083803026384   118.91636700   180.02085854
 C      8   7   6     6.747067066511   123.78986448   165.78194180
 H     14   8   7     1.094241746599   122.21438867   186.37584280
 H     14   8   7     1.093160555454   101.36476202    65.08121913
 H     14   8   7     1.093845967218   105.60241753   311.36276371
 S     14   8   7     1.803184405434    12.53644674   199.59459103

---------------------------
INTERNAL COORDINATES (A.U.)
---------------------------
 C      0   0   0     0.000000000000     0.00000000     0.00000000
 N      1   0   0     2.572047782411     0.00000000     0.00000000
 C      2   1   0     2.566680825712   121.95243626     0.00000000
 C      3   2   1     2.635972881098   120.02620694     0.10655554
 C      4   3   2     2.633203009226   119.34983770   359.90435571
 C      5   4   3     2.657141087893   120.47178172     0.08537773
 N      6   5   4     2.722242816095   120.30882193   180.03842131
 O      7   6   5     2.358334302820   121.13704526   179.93147861
 O      7   6   5     2.602008099442   120.36156660   359.90709941
 F      1   2   3     2.551130280794   118.67037638   179.91115691
 H      3   2   1     2.043748205657   119.86701156   179.98746005
 H      4   3   2     2.045819467592   120.19197482   179.89186186
 H      5   4   3     2.048090902982   118.91636700   180.02085854
 C      8   7   6    12.750108962906   123.78986448   165.78194180
 H     14   8   7     2.067817225376   122.21438867   186.37584280
 H     14   8   7     2.065774070213   101.36476202    65.08121913
 H     14   8   7     2.067069310737   105.60241753   311.36276371
 S     14   8   7     3.407524695228    12.53644674   199.59459103

---------------------
BASIS SET INFORMATION
---------------------
There are 6 groups of distinct atoms

 Group   1 Type C   : 12s6p1d contracted to 5s4p1d pattern {63111/3111/1}
 Group   2 Type N   : 12s6p1d contracted to 5s4p1d pattern {63111/3111/1}
 Group   3 Type O   : 12s6p1d contracted to 5s4p1d pattern {63111/3111/1}
 Group   4 Type F   : 12s6p1d contracted to 5s4p1d pattern {63111/3111/1}
 Group   5 Type H   : 6s1p contracted to 4s1p pattern {3111/1}
 Group   6 Type S   : 14s10p1d contracted to 7s6p1d pattern {6311111/421111/1}

Atom   0C    basis set group =>   1
Atom   1N    basis set group =>   2
Atom   2C    basis set group =>   1
Atom   3C    basis set group =>   1
Atom   4C    basis set group =>   1
Atom   5C    basis set group =>   1
Atom   6N    basis set group =>   2
Atom   7O    basis set group =>   3
Atom   8O    basis set group =>   3
Atom   9F    basis set group =>   4
Atom  10H    basis set group =>   5
Atom  11H    basis set group =>   5
Atom  12H    basis set group =>   5
Atom  13C    basis set group =>   1
Atom  14H    basis set group =>   5
Atom  15H    basis set group =>   5
Atom  16H    basis set group =>   5
Atom  17S    basis set group =>   6
---------------------------------
AUXILIARY/J BASIS SET INFORMATION
---------------------------------
There are 6 groups of distinct atoms

 Group   1 Type C   : 12s5p4d2f1g contracted to 6s4p3d1f1g pattern {711111/2111/211/2/1}
 Group   2 Type N   : 12s5p4d2f1g contracted to 6s4p3d1f1g pattern {711111/2111/211/2/1}
 Group   3 Type O   : 12s5p4d2f1g contracted to 6s4p3d1f1g pattern {711111/2111/211/2/1}
 Group   4 Type F   : 12s5p4d2f1g contracted to 6s4p3d1f1g pattern {711111/2111/211/2/1}
 Group   5 Type H   : 5s2p1d contracted to 3s1p1d pattern {311/2/1}
 Group   6 Type S   : 14s5p5d2f1g contracted to 8s4p3d1f1g pattern {71111111/2111/311/2/1}

Atom   0C    basis set group =>   1
Atom   1N    basis set group =>   2
Atom   2C    basis set group =>   1
Atom   3C    basis set group =>   1
Atom   4C    basis set group =>   1
Atom   5C    basis set group =>   1
Atom   6N    basis set group =>   2
Atom   7O    basis set group =>   3
Atom   8O    basis set group =>   3
Atom   9F    basis set group =>   4
Atom  10H    basis set group =>   5
Atom  11H    basis set group =>   5
Atom  12H    basis set group =>   5
Atom  13C    basis set group =>   1
Atom  14H    basis set group =>   5
Atom  15H    basis set group =>   5
Atom  16H    basis set group =>   5
Atom  17S    basis set group =>   6


           ************************************************************
           *        Program running with 24 parallel MPI-processes    *
           *              working on a common directory               *
           ************************************************************
------------------------------------------------------------------------------
                           ORCA GTO INTEGRAL CALCULATION
                           -- RI-GTO INTEGRALS CHOSEN --
------------------------------------------------------------------------------
------------------------------------------------------------------------------
                   ___                                                        
                  /   \      - P O W E R E D   B Y -                         
                 /     \                                                     
                 |  |  |   _    _      __       _____    __    __             
                 |  |  |  | |  | |    /  \     |  _  \  |  |  /  |          
                  \  \/   | |  | |   /    \    | | | |  |  | /  /          
                 / \  \   | |__| |  /  /\  \   | |_| |  |  |/  /          
                |  |  |   |  __  | /  /__\  \  |    /   |      \           
                |  |  |   | |  | | |   __   |  |    \   |  |\   \          
                \     /   | |  | | |  |  |  |  | |\  \  |  | \   \       
                 \___/    |_|  |_| |__|  |__|  |_| \__\ |__|  \__/        
                                                                              
                      - O R C A' S   B I G   F R I E N D -                    
                                      &                                       
                       - I N T E G R A L  F E E D E R -                       
                                                                              
 v1 FN, 2020, v2 2021                                                         
------------------------------------------------------------------------------


Reading SHARK input file structure_opt.SHARKINP.tmp ... ok
----------------------
SHARK INTEGRAL PACKAGE
----------------------

Number of atoms                             ...     18
Number of basis functions                   ...    314
Number of shells                            ...    154
Maximum angular momentum                    ...      2
Integral batch strategy                     ... SHARK/LIBINT Hybrid
RI-J (if used) integral strategy            ... SPLIT-RIJ (Revised 2003 algorithm where possible)
Printlevel                                  ...      1
Contraction scheme used                     ... SEGMENTED contraction
Coulomb Range Separation                    ... NOT USED
Exchange Range Separation                   ... Long Range
   Mu parameter                             ...  0.300000
   Scaling (regular/separated)              ...  0.157706  0.842294
Finite Nucleus Model                        ... NOT USED
Auxiliary Coulomb fitting basis             ... AVAILABLE
   # of basis functions in Aux-J            ...    656
   # of shells in Aux-J                     ...    212
   Maximum angular momentum in Aux-J        ...      4
Auxiliary J/K fitting basis                 ... NOT available
Auxiliary Correlation fitting basis         ... NOT available
Auxiliary 'external' fitting basis          ... NOT available
Integral threshold                          ...     2.500000e-11
Primitive cut-off                           ...     2.500000e-12
Primitive pair pre-selection threshold      ...     2.500000e-12

Calculating pre-screening integrals         ... done (  0.0 sec) Dimension = 154
Organizing shell pair data                  ... done (  0.1 sec)
Shell pair information
Total number of shell pairs                 ...     11935
Shell pairs after pre-screening             ...      8764
Total number of primitive shell pairs       ...     38500
Primitive shell pairs kept                  ...     20177
          la=0 lb=0:   2675 shell pairs
          la=1 lb=0:   3605 shell pairs
          la=1 lb=1:   1249 shell pairs
          la=2 lb=0:    698 shell pairs
          la=2 lb=1:    485 shell pairs
          la=2 lb=2:     52 shell pairs

Calculating one electron integrals          ... done (  0.0 sec)
Calculating RI/J V-Matrix + Cholesky decomp.... done (  0.2 sec)
Calculating Nuclear repulsion               ... done (  0.0 sec) ENN=    674.047593138383 Eh

SHARK setup successfully completed in   0.6 seconds

Maximum memory used throughout the entire GTOINT-calculation: 17.5 MB


           ************************************************************
           *        Program running with 24 parallel MPI-processes    *
           *              working on a common directory               *
           ************************************************************
-------------------------------------------------------------------------------
                                 ORCA SCF
-------------------------------------------------------------------------------

------------
SCF SETTINGS
------------
Hamiltonian:
 Density Functional     Method          .... DFT(GTOs)
 Exchange Functional    Exchange        .... WB97X
 Correlation Functional Correlation     .... WB97X
 Gradients option       PostSCFGGA      .... off
 Hybrid DFT is turned on
   Fraction HF Exchange ScalHFX         ....  0.157706
   Scaling of DF-GGA-X  ScalDFX         ....  0.000000
   Scaling of DF-GGA-C  ScalDFC         ....  1.000000
   Scaling of DF-LDA-C  ScalLDAC        ....  1.000000
   Perturbative correction              ....  0.000000
   Density functional embedding theory  .... OFF
 Long-range corrected/Screened/Range-Separated Hybrid DFT is turned on
   Amount of maximum screened exact exchange              ....  0.842294
   Range separation parameter mu (erf(mu*r12)/r12)        ....  0.300000
 RI-approximation to the Coulomb term is turned on
   Number of AuxJ basis functions       .... 656
   RIJ-COSX (HFX calculated with COS-X)).... on


General Settings:
 Integral files         IntName         .... structure_opt
 Hartree-Fock type      HFTyp           .... RHF
 Total Charge           Charge          ....   -1
 Multiplicity           Mult            ....    1
 Number of Electrons    NEL             ....   98
 Basis Dimension        Dim             ....  314
 Nuclear Repulsion      ENuc            ....    674.0475931384 Eh

Convergence Acceleration:
 DIIS                   CNVDIIS         .... on
   Start iteration      DIISMaxIt       ....    12
   Startup error        DIISStart       ....  0.200000
   # of expansion vecs  DIISMaxEq       ....     5
   Bias factor          DIISBfac        ....   1.050
   Max. coefficient     DIISMaxC        ....  10.000
 Trust-Rad. Augm. Hess. CNVTRAH         .... auto
   Auto Start mean grad. ratio tolernc. ....  1.125000
   Auto Start start iteration           ....    20
   Auto Start num. interpolation iter.  ....    10
   Max. Number of Micro iterations      ....    16
   Max. Number of Macro iterations      .... Maxiter - #DIIS iter
   Number of Davidson start vectors     ....     2
   Converg. threshold I  (grad. norm)   ....   1.000e-05
   Converg. threshold II (energy diff.) ....   1.000e-08
   Grad. Scal. Fac. for Micro threshold ....   0.100
   Minimum threshold for Micro iter.    ....   0.010
   NR start threshold (gradient norm)   ....   0.001
   Initial trust radius                 ....   0.400
   Minimum AH scaling param. (alpha)    ....   1.000
   Maximum AH scaling param. (alpha)    .... 1000.000
   Orbital update algorithm             .... Taylor
   White noise on init. David. guess    .... on
   Maximum white noise                  ....   0.010
   Quad. conv. algorithm                .... NR
 SOSCF                  CNVSOSCF        .... on
   Start iteration      SOSCFMaxIt      ....   150
   Startup grad/error   SOSCFStart      ....  0.003300
 Level Shifting         CNVShift        .... on
   Level shift para.    LevelShift      ....    0.2500
   Turn off err/grad.   ShiftErr        ....    0.0010
 Zerner damping         CNVZerner       .... off
 Static damping         CNVDamp         .... on
   Fraction old density DampFac         ....    0.7000
   Max. Damping (<1)    DampMax         ....    0.9800
   Min. Damping (>=0)   DampMin         ....    0.0000
   Turn off err/grad.   DampErr         ....    0.1000
 Fernandez-Rico         CNVRico         .... off

SCF Procedure:
 Maximum # iterations   MaxIter         ....   125
 SCF integral mode      SCFMode         .... Direct
   Integral package                     .... SHARK and LIBINT hybrid scheme
 Reset frequency        DirectResetFreq ....    20
 Integral Threshold     Thresh          ....  2.500e-11 Eh
 Primitive CutOff       TCut            ....  2.500e-12 Eh

Convergence Tolerance:
 Convergence Check Mode ConvCheckMode   .... Total+1el-Energy
 Convergence forced     ConvForced      .... 0
 Energy Change          TolE            ....  1.000e-08 Eh
 1-El. energy change                    ....  1.000e-05 Eh
 Orbital Gradient       TolG            ....  1.000e-05
 Orbital Rotation angle TolX            ....  1.000e-05
 DIIS Error             TolErr          ....  5.000e-07


Diagonalization of the overlap matrix:
Smallest eigenvalue                        ... 4.404e-06
Time for diagonalization                   ...    0.045 sec
Threshold for overlap eigenvalues          ... 1.000e-08
Number of eigenvalues below threshold      ... 0
Time for construction of square roots      ...    0.021 sec
Total time needed                          ...    0.068 sec

Time for model grid setup =    0.158 sec

------------------------------
INITIAL GUESS: MODEL POTENTIAL
------------------------------
Loading Hartree-Fock densities                     ... done
Calculating cut-offs                               ... done
Initializing the effective Hamiltonian             ... done
Setting up the integral package (SHARK)            ... done
Starting the Coulomb interaction                   ... done (   0.1 sec)
Reading the grid                                   ... done
Mapping shells                                     ... done
Starting the XC term evaluation                    ... done (   0.0 sec)
  promolecular density results
     # of electrons  =     96.995479486
     EX              =    -96.552267512
     EC              =     -3.327184277
     EX+EC           =    -99.879451789
Transforming the Hamiltonian                       ... done (   0.0 sec)
Diagonalizing the Hamiltonian                      ... done (   0.0 sec)
Back transforming the eigenvectors                 ... done (   0.0 sec)
Now organizing SCF variables                       ... done
                      ------------------
                      INITIAL GUESS DONE (   0.3 sec)
                      ------------------
-------------------
DFT GRID GENERATION
-------------------

General Integration Accuracy     IntAcc      ... 4.388
Radial Grid Type                 RadialGrid  ... OptM3 with GC (2021)
Angular Grid (max. ang.)         AngularGrid ... 4 (Lebedev-302)
Angular grid pruning method      GridPruning ... 4 (adaptive)
Weight generation scheme         WeightScheme... Becke
Basis function cutoff            BFCut       ... 1.0000e-11
Integration weight cutoff        WCut        ... 1.0000e-14
Angular grids for H and He will be reduced by one unit
Partially contracted basis set               ... off
Rotationally invariant grid construction     ... off

Total number of grid points                  ...    98124
Total number of batches                      ...     1543
Average number of points per batch           ...       63
Average number of grid points per atom       ...     5451
Time for grid setup =    0.585 sec

--------------------
COSX GRID GENERATION
--------------------

GRIDX 1
-------
General Integration Accuracy     IntAcc      ... 3.816
Radial Grid Type                 RadialGrid  ... OptM3 with GC (2021)
Angular Grid (max. ang.)         AngularGrid ... 1 (Lebedev-50)
Angular grid pruning method      GridPruning ... 4 (adaptive)
Weight generation scheme         WeightScheme... Becke
Basis function cutoff            BFCut       ... 1.0000e-11
Integration weight cutoff        WCut        ... 1.0000e-14
Angular grids for H and He will be reduced by one unit
Partially contracted basis set               ... on
Rotationally invariant grid construction     ... off

Total number of grid points                  ...    12256
Total number of batches                      ...      203
Average number of points per batch           ...       60
Average number of grid points per atom       ...      681
UseSFitting                                  ... on

GRIDX 2
-------
General Integration Accuracy     IntAcc      ... 4.020
Radial Grid Type                 RadialGrid  ... OptM3 with GC (2021)
Angular Grid (max. ang.)         AngularGrid ... 2 (Lebedev-110)
Angular grid pruning method      GridPruning ... 4 (adaptive)
Weight generation scheme         WeightScheme... Becke
Basis function cutoff            BFCut       ... 1.0000e-11
Integration weight cutoff        WCut        ... 1.0000e-14
Angular grids for H and He will be reduced by one unit
Partially contracted basis set               ... on
Rotationally invariant grid construction     ... off

Total number of grid points                  ...    31139
Total number of batches                      ...      493
Average number of points per batch           ...       63
Average number of grid points per atom       ...     1730
UseSFitting                                  ... on

GRIDX 3
-------
General Integration Accuracy     IntAcc      ... 4.338
Radial Grid Type                 RadialGrid  ... OptM3 with GC (2021)
Angular Grid (max. ang.)         AngularGrid ... 3 (Lebedev-194)
Angular grid pruning method      GridPruning ... 4 (adaptive)
Weight generation scheme         WeightScheme... Becke
Basis function cutoff            BFCut       ... 1.0000e-11
Integration weight cutoff        WCut        ... 1.0000e-14
Angular grids for H and He will be reduced by one unit
Partially contracted basis set               ... on
Rotationally invariant grid construction     ... off

Total number of grid points                  ...    69260
Total number of batches                      ...     1090
Average number of points per batch           ...       63
Average number of grid points per atom       ...     3848
UseSFitting                                  ... on

Time for X-Grid setup             =    1.198 sec


--------------------
CPCM SOLVATION MODEL
--------------------
CPCM parameters:
  Epsilon                                         ...      78.3550
  Refrac                                          ...       1.3328
  Rsolv                                           ...       1.3000
  Surface type                                    ... GAUSSIAN VDW
  Epsilon function type                           ...         CPCM
Solvent:                                     ... WATER
SMD-CDS solvent descriptors:
  Soln                                       ...    1.3328
  Soln25                                     ...    1.3323
  Sola                                       ...    0.0000
  Solb                                       ...    0.0000
  Solg                                       ...    0.0000
  Solc                                       ...    0.0000
  Solh                                       ...    0.0000
Radii:
 Radius for C  used is    3.4960 Bohr (=   1.8500 Ang.)
 Radius for N  used is    3.5716 Bohr (=   1.8900 Ang.)
 Radius for O  used is    2.8724 Bohr (=   1.5200 Ang.)
 Radius for F  used is    3.2692 Bohr (=   1.7300 Ang.)
 Radius for H  used is    2.2677 Bohr (=   1.2000 Ang.)
 Radius for S  used is    4.7054 Bohr (=   2.4900 Ang.)
Calculating surface                               ...        done! (  0.0s)
GEPOL surface points                              ...         1157
GEPOL Volume                                      ...    1360.4749
GEPOL Surface-area                                ...     847.9042
Calculating surface distance matrix               ...        done! (  0.0s)
Performing Cholesky decomposition & store         ...        done! (  0.1s)
Overall time for CPCM initialization              ...                 0.1s
--------------
SCF ITERATIONS
--------------
ITER       Energy         Delta-E        Max-DP      RMS-DP      [F,P]     Damp
               ***  Starting incremental Fock matrix formation  ***
  0   -989.8658244298   0.000000000000 0.33104293  0.00316540  0.2373275 0.7000
  1   -990.0280457894  -0.162221359579 0.25560593  0.00254216  0.1191215 0.7000
                               ***Turning on DIIS***
  2   -990.1004872528  -0.072441463434 1.60775932  0.00928854  0.0639921 0.0000
  3   -990.2245362103  -0.124048957526 0.75492517  0.00392151  0.0550204 0.0000
  4   -990.2436881056  -0.019151895305 0.24897388  0.00132509  0.0124200 0.0000
  5   -990.2448647097  -0.001176604087 0.12840869  0.00069325  0.0061527 0.0000
                      *** Initiating the SOSCF procedure ***
                           *** Shutting down DIIS ***
                      *** Re-Reading the Fockian *** 
                      *** Removing any level shift *** 
ITER      Energy       Delta-E        Grad      Rot      Max-DP    RMS-DP
  6   -990.24509643  -0.0002317211  0.001493  0.001493  0.035935  0.000220
               *** Restarting incremental Fock matrix formation ***
  7   -990.24519390  -0.0000974660  0.000978  0.002400  0.017171  0.000197
  8   -990.24523309  -0.0000391959  0.000342  0.002516  0.013918  0.000181
  9   -990.24523893  -0.0000058347  0.000684  0.000717  0.008437  0.000095
 10   -990.24524585  -0.0000069181  0.000112  0.000193  0.002451  0.000026
 11   -990.24524593  -0.0000000804  0.000092  0.000125  0.002989  0.000018
 12   -990.24524628  -0.0000003533  0.000015  0.000039  0.004125  0.000022
 13   -990.24524628  -0.0000000007  0.000007  0.000031  0.007162  0.000048
 14   -990.24524628  -0.0000000046  0.000005  0.000012  0.003252  0.000022
                  ***Gradient check signals convergence***
              ***Rediagonalizing the Fockian in SOSCF/NRSCF***

               *****************************************************
               *                     SUCCESS                       *
               *           SCF CONVERGED AFTER  15 CYCLES          *
               *****************************************************

Old exchange energy                            =    -28.432447148 Eh
New exchange energy                            =    -28.432450850 Eh
Exchange energy change after final integration =     -0.000003702 Eh
Total energy after final integration           =   -990.245249992 Eh
Final COS-X integration done in                =     3.493 sec

SMD CDS free energy correction energy :                 5.87325     Kcal/mol
Total Energy after SMD CDS correction =              -990.235890374 Eh

----------------
TOTAL SCF ENERGY
----------------

Total Energy       :         -990.23589037 Eh          -26945.68847 eV

Components:
Nuclear Repulsion  :          674.04759314 Eh           18341.76749 eV
Electronic Energy  :        -1664.28348351 Eh          -45287.45596 eV
One Electron Energy:        -2707.71930919 Eh          -73680.78826 eV
Two Electron Energy:         1043.43582568 Eh           28393.33231 eV
Max COSX asymmetry :            0.00000225 Eh               0.00006 eV
CPCM Dielectric    :           -0.14788046 Eh              -4.02403 eV
SMD CDS (Gcds)     :            0.00935962 Eh               0.25469 eV

Virial components:
Potential Energy   :        -1977.46474415 Eh          -53809.55131 eV
Kinetic Energy     :          987.22885378 Eh           26863.86284 eV
Virial Ratio       :            2.00304594


DFT components:
N(Alpha)           :       48.999988362773 electrons
N(Beta)            :       48.999988362773 electrons
N(Total)           :       97.999976725546 electrons
E(XC)              :      -73.337664268927 Eh       
DFET-embed. en.    :        0.000000000000 Eh       
CPCM Solvation Model Properties:
Surface-charge          :            0.94694929
Charge-correction       :           -0.00558136 Eh              -0.15188 eV
Free-energy (cav+disp)  :            0.00935962 Eh               0.25469 eV

---------------
SCF CONVERGENCE
---------------

  Last Energy change         ...   -5.2996e-09  Tolerance :   1.0000e-08
  Last MAX-Density change    ...    3.5527e-15  Tolerance :   1.0000e-07
  Last RMS-Density change    ...    4.7035e-17  Tolerance :   5.0000e-09
  Last Orbital Gradient      ...    1.9518e-06  Tolerance :   1.0000e-05
  Last Orbital Rotation      ...    1.7445e-06  Tolerance :   1.0000e-05

             **** THE GBW FILE WAS UPDATED (structure_opt.gbw) ****
             **** DENSITY structure_opt.scfp WAS UPDATED ****
             **** ENERGY FILE WAS UPDATED (structure_opt.en.tmp) ****
             **** THE GBW FILE WAS UPDATED (structure_opt.gbw) ****
             **** DENSITY structure_opt.scfp WAS UPDATED ****
----------------
ORBITAL ENERGIES
----------------

  NO   OCC          E(Eh)            E(eV) 
   0   2.0000     -88.719974     -2414.1932 
   1   2.0000     -24.793415      -674.6631 
   2   2.0000     -19.275652      -524.5172 
   3   2.0000     -19.243872      -523.6524 
   4   2.0000     -14.669758      -399.1844 
   5   2.0000     -14.435718      -392.8159 
   6   2.0000     -10.437802      -284.0270 
   7   2.0000     -10.364262      -282.0259 
   8   2.0000     -10.338359      -281.3211 
   9   2.0000     -10.321302      -280.8569 
  10   2.0000     -10.290661      -280.0231 
  11   2.0000     -10.235791      -278.5300 
  12   2.0000      -7.915830      -215.4007 
  13   2.0000      -5.879028      -159.9765 
  14   2.0000      -5.871573      -159.7736 
  15   2.0000      -5.871555      -159.7731 
  16   2.0000      -1.396446       -37.9992 
  17   2.0000      -1.348147       -36.6849 
  18   2.0000      -1.151395       -31.3311 
  19   2.0000      -1.109420       -30.1889 
  20   2.0000      -1.008468       -27.4418 
  21   2.0000      -0.943544       -25.6751 
  22   2.0000      -0.874074       -23.7848 
  23   2.0000      -0.835877       -22.7454 
  24   2.0000      -0.796778       -21.6814 
  25   2.0000      -0.769267       -20.9328 
  26   2.0000      -0.706049       -19.2126 
  27   2.0000      -0.686573       -18.6826 
  28   2.0000      -0.669442       -18.2164 
  29   2.0000      -0.664891       -18.0926 
  30   2.0000      -0.661680       -18.0052 
  31   2.0000      -0.633246       -17.2315 
  32   2.0000      -0.620427       -16.8827 
  33   2.0000      -0.615379       -16.7453 
  34   2.0000      -0.563913       -15.3448 
  35   2.0000      -0.537243       -14.6191 
  36   2.0000      -0.528085       -14.3699 
  37   2.0000      -0.528062       -14.3693 
  38   2.0000      -0.494165       -13.4469 
  39   2.0000      -0.493794       -13.4368 
  40   2.0000      -0.456022       -12.4090 
  41   2.0000      -0.432387       -11.7658 
  42   2.0000      -0.421550       -11.4710 
  43   2.0000      -0.416539       -11.3346 
  44   2.0000      -0.408191       -11.1074 
  45   2.0000      -0.390511       -10.6263 
  46   2.0000      -0.385069       -10.4783 
  47   2.0000      -0.258726        -7.0403 
  48   2.0000      -0.258692        -7.0394 
  49   0.0000      -0.064759        -1.7622 
  50   0.0000       0.022539         0.6133 
  51   0.0000       0.054157         1.4737 
  52   0.0000       0.055381         1.5070 
  53   0.0000       0.057665         1.5691 
  54   0.0000       0.067831         1.8458 
  55   0.0000       0.075274         2.0483 
  56   0.0000       0.088358         2.4043 
  57   0.0000       0.090845         2.4720 
  58   0.0000       0.091798         2.4980 
  59   0.0000       0.097912         2.6643 
  60   0.0000       0.114803         3.1239 
  61   0.0000       0.115043         3.1305 
  62   0.0000       0.126652         3.4464 
  63   0.0000       0.128403         3.4940 
  64   0.0000       0.129726         3.5300 
  65   0.0000       0.140978         3.8362 
  66   0.0000       0.152062         4.1378 
  67   0.0000       0.154708         4.2098 
  68   0.0000       0.159107         4.3295 
  69   0.0000       0.163734         4.4554 
  70   0.0000       0.170248         4.6327 
  71   0.0000       0.172185         4.6854 
  72   0.0000       0.173804         4.7294 
  73   0.0000       0.178232         4.8500 
  74   0.0000       0.181624         4.9422 
  75   0.0000       0.184511         5.0208 
  76   0.0000       0.191716         5.2169 
  77   0.0000       0.191887         5.2215 
  78   0.0000       0.197947         5.3864 
  79   0.0000       0.201745         5.4898 
  80   0.0000       0.207463         5.6453 
  81   0.0000       0.216779         5.8989 
  82   0.0000       0.227256         6.1840 
  83   0.0000       0.233308         6.3486 
  84   0.0000       0.234211         6.3732 
  85   0.0000       0.241167         6.5625 
  86   0.0000       0.254986         6.9385 
  87   0.0000       0.261632         7.1194 
  88   0.0000       0.264084         7.1861 
  89   0.0000       0.267070         7.2673 
  90   0.0000       0.275033         7.4840 
  91   0.0000       0.277828         7.5601 
  92   0.0000       0.279101         7.5947 
  93   0.0000       0.279722         7.6116 
  94   0.0000       0.288014         7.8373 
  95   0.0000       0.296876         8.0784 
  96   0.0000       0.305006         8.2996 
  97   0.0000       0.311318         8.4714 
  98   0.0000       0.316276         8.6063 
  99   0.0000       0.322360         8.7718 
 100   0.0000       0.326663         8.8890 
 101   0.0000       0.341907         9.3038 
 102   0.0000       0.348484         9.4827 
 103   0.0000       0.354999         9.6600 
 104   0.0000       0.360980         9.8228 
 105   0.0000       0.366117         9.9626 
 106   0.0000       0.372069        10.1245 
 107   0.0000       0.377436        10.2705 
 108   0.0000       0.398226        10.8363 
 109   0.0000       0.405928        11.0459 
 110   0.0000       0.408429        11.1139 
 111   0.0000       0.414883        11.2895 
 112   0.0000       0.420348        11.4383 
 113   0.0000       0.430613        11.7176 
 114   0.0000       0.439672        11.9641 
 115   0.0000       0.449560        12.2331 
 116   0.0000       0.458302        12.4710 
 117   0.0000       0.458684        12.4814 
 118   0.0000       0.472320        12.8525 
 119   0.0000       0.479163        13.0387 
 120   0.0000       0.496120        13.5001 
 121   0.0000       0.507593        13.8123 
 122   0.0000       0.526825        14.3356 
 123   0.0000       0.528648        14.3853 
 124   0.0000       0.530032        14.4229 
 125   0.0000       0.563977        15.3466 
 126   0.0000       0.594001        16.1636 
 127   0.0000       0.609857        16.5951 
 128   0.0000       0.617628        16.8065 
 129   0.0000       0.619557        16.8590 
 130   0.0000       0.633947        17.2506 
 131   0.0000       0.642866        17.4933 
 132   0.0000       0.647931        17.6311 
 133   0.0000       0.658007        17.9053 
 134   0.0000       0.668150        18.1813 
 135   0.0000       0.699832        19.0434 
 136   0.0000       0.702569        19.1179 
 137   0.0000       0.726491        19.7688 
 138   0.0000       0.744140        20.2491 
 139   0.0000       0.770750        20.9732 
 140   0.0000       0.771094        20.9825 
 141   0.0000       0.783818        21.3288 
 142   0.0000       0.812655        22.1135 
 143   0.0000       0.827476        22.5168 
 144   0.0000       0.838509        22.8170 
 145   0.0000       0.850107        23.1326 
 146   0.0000       0.854380        23.2489 
 147   0.0000       0.871693        23.7200 
 148   0.0000       0.899703        24.4822 
 149   0.0000       0.909743        24.7554 
 150   0.0000       0.920859        25.0579 
 151   0.0000       0.935006        25.4428 
 152   0.0000       0.953943        25.9581 
 153   0.0000       0.954670        25.9779 
 154   0.0000       0.962830        26.1999 
 155   0.0000       0.972601        26.4658 
 156   0.0000       0.976477        26.5713 
 157   0.0000       0.984091        26.7785 
 158   0.0000       1.002117        27.2690 
 159   0.0000       1.004485        27.3334 
 160   0.0000       1.004628        27.3373 
 161   0.0000       1.038355        28.2551 
 162   0.0000       1.053628        28.6707 
 163   0.0000       1.062905        28.9231 
 164   0.0000       1.076167        29.2840 
 165   0.0000       1.079751        29.3815 
 166   0.0000       1.084591        29.5132 
 167   0.0000       1.141219        31.0541 
 168   0.0000       1.149916        31.2908 
 169   0.0000       1.152767        31.3684 
 170   0.0000       1.175838        31.9962 
 171   0.0000       1.186793        32.2943 
 172   0.0000       1.198987        32.6261 
 173   0.0000       1.216303        33.0973 
 174   0.0000       1.256897        34.2019 
 175   0.0000       1.262741        34.3609 
 176   0.0000       1.278155        34.7804 
 177   0.0000       1.279339        34.8126 
 178   0.0000       1.280789        34.8520 
 179   0.0000       1.298097        35.3230 
 180   0.0000       1.300880        35.3988 
 181   0.0000       1.359552        36.9953 
 182   0.0000       1.393672        37.9238 
 183   0.0000       1.406573        38.2748 
 184   0.0000       1.471104        40.0308 
 185   0.0000       1.506354        40.9900 
 186   0.0000       1.545676        42.0600 
 187   0.0000       1.587438        43.1964 
 188   0.0000       1.589692        43.2577 
 189   0.0000       1.591601        43.3097 
 190   0.0000       1.617520        44.0150 
 191   0.0000       1.631778        44.4029 
 192   0.0000       1.655029        45.0356 
 193   0.0000       1.656908        45.0868 
 194   0.0000       1.693118        46.0721 
 195   0.0000       1.694437        46.1080 
 196   0.0000       1.705958        46.4215 
 197   0.0000       1.715128        46.6710 
 198   0.0000       1.749114        47.5958 
 199   0.0000       1.770092        48.1667 
 200   0.0000       1.787169        48.6314 
 201   0.0000       1.809542        49.2401 
 202   0.0000       1.810620        49.2695 
 203   0.0000       1.817909        49.4678 
 204   0.0000       1.843153        50.1548 
 205   0.0000       1.848993        50.3137 
 206   0.0000       1.869540        50.8728 
 207   0.0000       1.917132        52.1678 
 208   0.0000       1.933887        52.6238 
 209   0.0000       1.954671        53.1893 
 210   0.0000       1.969899        53.6037 
 211   0.0000       1.974287        53.7231 
 212   0.0000       1.990651        54.1684 
 213   0.0000       2.011706        54.7413 
 214   0.0000       2.032529        55.3079 
 215   0.0000       2.046867        55.6981 
 216   0.0000       2.054398        55.9030 
 217   0.0000       2.111291        57.4512 
 218   0.0000       2.140424        58.2439 
 219   0.0000       2.147338        58.4320 
 220   0.0000       2.168633        59.0115 
 221   0.0000       2.174027        59.1583 
 222   0.0000       2.176322        59.2207 
 223   0.0000       2.206158        60.0326 
 224   0.0000       2.292655        62.3863 
 225   0.0000       2.324160        63.2436 
 226   0.0000       2.332313        63.4655 
 227   0.0000       2.332728        63.4767 
 228   0.0000       2.399302        65.2883 
 229   0.0000       2.429203        66.1020 
 230   0.0000       2.494402        67.8761 
 231   0.0000       2.563872        69.7665 
 232   0.0000       2.590946        70.5032 
 233   0.0000       2.596517        70.6548 
 234   0.0000       2.604075        70.8605 
 235   0.0000       2.627824        71.5067 
 236   0.0000       2.659303        72.3633 
 237   0.0000       2.661853        72.4327 
 238   0.0000       2.673297        72.7441 
 239   0.0000       2.673745        72.7563 
 240   0.0000       2.692255        73.2600 
 241   0.0000       2.766554        75.2818 
 242   0.0000       2.785395        75.7945 
 243   0.0000       2.828509        76.9676 
 244   0.0000       2.839784        77.2745 
 245   0.0000       2.858400        77.7810 
 246   0.0000       2.867352        78.0246 
 247   0.0000       2.883155        78.4546 
 248   0.0000       2.893627        78.7396 
 249   0.0000       2.901683        78.9588 
 250   0.0000       2.930920        79.7544 
 251   0.0000       2.938356        79.9567 
 252   0.0000       2.961090        80.5754 
 253   0.0000       2.976237        80.9875 
 254   0.0000       2.986593        81.2693 
 255   0.0000       3.001613        81.6781 
 256   0.0000       3.010089        81.9087 
 257   0.0000       3.097425        84.2852 
 258   0.0000       3.152917        85.7952 
 259   0.0000       3.189029        86.7779 
 260   0.0000       3.268694        88.9457 
 261   0.0000       3.307579        90.0038 
 262   0.0000       3.307952        90.0139 
 263   0.0000       3.340555        90.9011 
 264   0.0000       3.368081        91.6502 
 265   0.0000       3.454386        93.9986 
 266   0.0000       3.497844        95.1812 
 267   0.0000       3.558726        96.8379 
 268   0.0000       3.593355        97.7802 
 269   0.0000       3.681347       100.1745 
 270   0.0000       3.704312       100.7995 
 271   0.0000       3.753585       102.1403 
 272   0.0000       3.853255       104.8524 
 273   0.0000       3.884869       105.7127 
 274   0.0000       3.888230       105.8041 
 275   0.0000       3.891265       105.8867 
 276   0.0000       3.904716       106.2527 
 277   0.0000       3.924316       106.7861 
 278   0.0000       4.010664       109.1357 
 279   0.0000       4.059313       110.4595 
 280   0.0000       4.120077       112.1130 
 281   0.0000       4.143643       112.7543 
 282   0.0000       4.169044       113.4455 
 283   0.0000       4.405540       119.8808 
 284   0.0000       4.477630       121.8425 
 285   0.0000       4.509079       122.6983 
 286   0.0000       4.768172       129.7485 
 287   0.0000       4.943182       134.5108 
 288   0.0000       5.074029       138.0714 
 289   0.0000       5.104935       138.9124 
 290   0.0000       5.196042       141.3915 
 291   0.0000       5.231592       142.3589 
 292   0.0000       5.314578       144.6170 
 293   0.0000       5.700042       155.1060 
 294   0.0000       6.131964       166.8592 
 295   0.0000       6.407533       174.3578 
 296   0.0000       6.539937       177.9607 
 297   0.0000       6.842111       186.1833 
 298   0.0000       7.978651       217.1101 
 299   0.0000      17.545521       477.4379 
 300   0.0000      17.549519       477.5467 
 301   0.0000      17.638915       479.9793 
 302   0.0000      23.649250       643.5288 
 303   0.0000      23.890294       650.0880 
 304   0.0000      23.983942       652.6362 
 305   0.0000      24.029859       653.8857 
 306   0.0000      24.071070       655.0071 
 307   0.0000      24.181144       658.0024 
 308   0.0000      35.376808       962.6519 
 309   0.0000      35.656892       970.2734 
 310   0.0000      49.904362      1357.9667 
 311   0.0000      49.970069      1359.7547 
 312   0.0000      66.792391      1817.5134 
 313   0.0000     188.967591      5142.0696 

--------------------
FRAGMENT INFORMATION
--------------------
Fragment  1:    0   1   2   3   4   5 
Fragment  2:    6   7   8   9  10  11  12 
Fragment  3:   13  14  15  16 
Fragment  4:   17 


                    ********************************
                    * MULLIKEN POPULATION ANALYSIS *
                    ********************************

-------------------------
MULLIKEN FRAGMENT CHARGES
-------------------------
 Fragment   0 :  -0.430517
 Fragment   1 :   0.432248
 Fragment   2 :  -0.037990
 Fragment   3 :  -0.963741
Sum of fragment charges:   -1.0000000

---------------------------------
MULLIKEN FRAGMENT OVERLAP CHARGES
---------------------------------
                  0          1          2          3    
      0      20.880942   0.601516  -0.000170   0.000269
      1       0.601516  34.931232   0.001260   0.000790
      2      -0.000170   0.001260  11.671121  -0.673512
      3       0.000269   0.000790  -0.673512  17.299968

-----------------------
MULLIKEN ATOMIC CHARGES
-----------------------
   0 C :   -0.039763
   1 N :   -0.204171
   2 C :   -0.294151
   3 C :   -0.260951
   4 C :    0.426263
   5 C :   -0.057744
   6 N :   -0.127729
   7 O :   -0.006976
   8 O :   -0.228683
   9 F :   -0.107429
  10 H :    0.296161
  11 H :    0.281075
  12 H :    0.325829
  13 C :   -0.418552
  14 H :    0.125983
  15 H :    0.127258
  16 H :    0.127322
  17 S :   -0.963741
Sum of atomic charges:   -1.0000000

--------------------------------
MULLIKEN REDUCED ORBITAL CHARGES
--------------------------------
  0 C s       :     3.287163  s :     3.287163
      pz      :     0.673450  p :     2.592147
      px      :     0.977362
      py      :     0.941335
      dz2     :     0.052749  d :     0.160453
      dxz     :     0.048844
      dyz     :     0.028445
      dx2y2   :     0.013770
      dxy     :     0.016645
  1 N s       :     3.625510  s :     3.625510
      pz      :     1.142194  p :     3.548135
      px      :     1.241117
      py      :     1.164824
      dz2     :     0.008166  d :     0.030525
      dxz     :     0.007238
      dyz     :     0.004759
      dx2y2   :     0.005504
      dxy     :     0.004859
  2 C s       :     3.376975  s :     3.376975
      pz      :     0.811318  p :     2.833029
      px      :     1.167928
      py      :     0.853782
      dz2     :     0.023581  d :     0.084147
      dxz     :     0.032194
      dyz     :     0.014804
      dx2y2   :     0.007221
      dxy     :     0.006347
  3 C s       :     3.212260  s :     3.212260
      pz      :     1.157458  p :     2.995525
      px      :     0.870763
      py      :     0.967304
      dz2     :     0.015295  d :     0.053166
      dxz     :     0.017415
      dyz     :     0.005092
      dx2y2   :     0.008213
      dxy     :     0.007150
  4 C s       :     2.512842  s :     2.512842
      pz      :     0.911744  p :     3.003802
      px      :     1.245575
      py      :     0.846484
      dz2     :     0.016546  d :     0.057092
      dxz     :     0.015858
      dyz     :     0.010568
      dx2y2   :     0.007214
      dxy     :     0.006905
  5 C s       :     3.278044  s :     3.278044
      pz      :     1.096079  p :     2.706554
      px      :     0.487261
      py      :     1.123215
      dz2     :     0.013625  d :     0.073146
      dxz     :     0.029771
      dyz     :     0.010338
      dx2y2   :     0.011217
      dxy     :     0.008195
  6 N s       :     3.626721  s :     3.626721
      pz      :     1.072818  p :     3.392039
      px      :     1.215942
      py      :     1.103279
      dz2     :     0.027703  d :     0.108969
      dxz     :     0.039363
      dyz     :     0.023078
      dx2y2   :     0.008549
      dxy     :     0.010277
  7 O s       :     3.745609  s :     3.745609
      pz      :     1.018188  p :     4.242651
      px      :     1.824586
      py      :     1.399877
      dz2     :     0.009721  d :     0.018715
      dxz     :     0.003515
      dyz     :     0.005310
      dx2y2   :     0.000102
      dxy     :     0.000067
  8 O s       :     3.818504  s :     3.818504
      pz      :     1.622343  p :     4.398062
      px      :     1.217662
      py      :     1.558057
      dz2     :     0.001058  d :     0.012117
      dxz     :     0.004901
      dyz     :     0.000879
      dx2y2   :     0.003118
      dxy     :     0.002161
  9 F s       :     3.921381  s :     3.921381
      pz      :     1.390181  p :     5.180715
      px      :     1.916306
      py      :     1.874228
      dz2     :     0.003098  d :     0.005333
      dxz     :     0.000998
      dyz     :     0.001201
      dx2y2   :     0.000027
      dxy     :     0.000009
 10 H s       :     0.679939  s :     0.679939
      pz      :     0.005481  p :     0.023900
      px      :     0.014119
      py      :     0.004299
 11 H s       :     0.693962  s :     0.693962
      pz      :     0.016372  p :     0.024963
      px      :     0.003655
      py      :     0.004935
 12 H s       :     0.648650  s :     0.648650
      pz      :     0.007744  p :     0.025521
      px      :     0.013378
      py      :     0.004400
 13 C s       :     3.279597  s :     3.279597
      pz      :     1.050404  p :     3.086347
      px      :     0.975442
      py      :     1.060502
      dz2     :     0.014932  d :     0.052609
      dxz     :     0.008689
      dyz     :     0.004450
      dx2y2   :     0.008780
      dxy     :     0.015759
 14 H s       :     0.851319  s :     0.851319
      pz      :     0.013312  p :     0.022698
      px      :     0.004654
      py      :     0.004732
 15 H s       :     0.850013  s :     0.850013
      pz      :     0.005322  p :     0.022729
      px      :     0.006450
      py      :     0.010958
 16 H s       :     0.849975  s :     0.849975
      pz      :     0.006074  p :     0.022703
      px      :     0.006775
      py      :     0.009854
 17 S s       :     6.007019  s :     6.007019
      pz      :     3.895285  p :    10.925316
      px      :     3.034017
      py      :     3.996013
      dz2     :     0.004225  d :     0.031406
      dxz     :     0.008621
      dyz     :     0.000308
      dx2y2   :     0.014023
      dxy     :     0.004229


                     *******************************
                     * LOEWDIN POPULATION ANALYSIS *
                     *******************************

------------------------
LOEWDIN FRAGMENT CHARGES
------------------------
 Fragment   0 :   0.057413
 Fragment   1 :  -0.056733
 Fragment   2 :  -0.355131
 Fragment   3 :  -0.645549

----------------------------
LOEWDIN FRAGMENT BOND ORDERS
----------------------------
                  0          1          2          3    
      0      56.961663   6.778272   0.000033   0.000369
      1       6.778272  43.787984   0.000528   0.003463
      2       0.000033   0.000528  15.418468   1.743743
      3       0.000369   0.003463   1.743743  16.645549

----------------------
LOEWDIN ATOMIC CHARGES
----------------------
   0 C :    0.111513
   1 N :   -0.111953
   2 C :    0.077192
   3 C :   -0.033836
   4 C :    0.078150
   5 C :   -0.063653
   6 N :    0.240932
   7 O :   -0.153076
   8 O :   -0.338217
   9 F :   -0.078162
  10 H :    0.086988
  11 H :    0.084547
  12 H :    0.100255
  13 C :   -0.358384
  14 H :    0.001039
  15 H :    0.000982
  16 H :    0.001233
  17 S :   -0.645549

-------------------------------
LOEWDIN REDUCED ORBITAL CHARGES
-------------------------------
  0 C s       :     2.743687  s :     2.743687
      pz      :     0.849324  p :     2.815684
      px      :     1.080468
      py      :     0.885893
      dz2     :     0.112510  d :     0.329116
      dxz     :     0.100719
      dyz     :     0.050393
      dx2y2   :     0.033874
      dxy     :     0.031620
  1 N s       :     3.151594  s :     3.151594
      pz      :     1.301220  p :     3.903521
      px      :     1.416930
      py      :     1.185370
      dz2     :     0.017387  d :     0.056838
      dxz     :     0.015718
      dyz     :     0.007793
      dx2y2   :     0.009542
      dxy     :     0.006398
  2 C s       :     2.786871  s :     2.786871
      pz      :     1.032882  p :     2.954093
      px      :     1.096520
      py      :     0.824691
      dz2     :     0.060304  d :     0.181845
      dxz     :     0.069054
      dyz     :     0.027984
      dx2y2   :     0.014016
      dxy     :     0.010488
  3 C s       :     2.781232  s :     2.781232
      pz      :     1.081323  p :     3.128243
      px      :     1.092144
      py      :     0.954776
      dz2     :     0.034119  d :     0.124361
      dxz     :     0.045068
      dyz     :     0.008010
      dx2y2   :     0.022212
      dxy     :     0.014952
  4 C s       :     2.779202  s :     2.779202
      pz      :     1.065868  p :     3.014358
      px      :     1.108232
      py      :     0.840258
      dz2     :     0.040903  d :     0.128289
      dxz     :     0.039164
      dyz     :     0.021248
      dx2y2   :     0.015050
      dxy     :     0.011923
  5 C s       :     2.757862  s :     2.757862
      pz      :     1.088506  p :     3.125457
      px      :     0.957381
      py      :     1.079571
      dz2     :     0.039912  d :     0.180334
      dxz     :     0.071777
      dyz     :     0.019828
      dx2y2   :     0.031421
      dxy     :     0.017396
  6 N s       :     3.052252  s :     3.052252
      pz      :     1.206143  p :     3.500473
      px      :     1.215097
      py      :     1.079233
      dz2     :     0.060437  d :     0.206343
      dxz     :     0.076186
      dyz     :     0.035692
      dx2y2   :     0.017514
      dxy     :     0.016514
  7 O s       :     3.580766  s :     3.580766
      pz      :     1.283468  p :     4.539987
      px      :     1.838756
      py      :     1.417763
      dz2     :     0.020440  d :     0.032323
      dxz     :     0.005159
      dyz     :     0.006534
      dx2y2   :     0.000119
      dxy     :     0.000071
  8 O s       :     3.667242  s :     3.667242
      pz      :     1.709855  p :     4.650486
      px      :     1.369609
      py      :     1.571022
      dz2     :     0.001545  d :     0.020489
      dxz     :     0.009265
      dyz     :     0.001173
      dx2y2   :     0.005713
      dxy     :     0.002792
  9 F s       :     3.714990  s :     3.714990
      pz      :     1.535178  p :     5.355802
      px      :     1.934347
      py      :     1.886277
      dz2     :     0.004766  d :     0.007371
      dxz     :     0.001184
      dyz     :     0.001375
      dx2y2   :     0.000037
      dxy     :     0.000009
 10 H s       :     0.842614  s :     0.842614
      pz      :     0.016676  p :     0.070399
      px      :     0.042290
      py      :     0.011432
 11 H s       :     0.843003  s :     0.843003
      pz      :     0.047832  p :     0.072450
      px      :     0.011211
      py      :     0.013407
 12 H s       :     0.826512  s :     0.826512
      pz      :     0.023097  p :     0.073232
      px      :     0.038722
      py      :     0.011414
 13 C s       :     2.858668  s :     2.858668
      pz      :     1.121140  p :     3.392857
      px      :     1.153654
      py      :     1.118064
      dz2     :     0.029931  d :     0.106859
      dxz     :     0.018055
      dyz     :     0.007947
      dx2y2   :     0.019534
      dxy     :     0.031393
 14 H s       :     0.927325  s :     0.927325
      pz      :     0.043227  p :     0.071636
      px      :     0.014713
      py      :     0.013696
 15 H s       :     0.927180  s :     0.927180
      pz      :     0.015737  p :     0.071837
      px      :     0.021293
      py      :     0.034808
 16 H s       :     0.927049  s :     0.927049
      pz      :     0.018236  p :     0.071718
      px      :     0.022446
      py      :     0.031036
 17 S s       :     5.612337  s :     5.612337
      pz      :     3.859283  p :    10.996066
      px      :     3.199994
      py      :     3.936789
      dz2     :     0.004990  d :     0.037146
      dxz     :     0.010167
      dyz     :     0.000335
      dx2y2   :     0.016909
      dxy     :     0.004744


                      *****************************
                      * MAYER POPULATION ANALYSIS *
                      *****************************

  NA   - Mulliken gross atomic population
  ZA   - Total nuclear charge
  QA   - Mulliken gross atomic charge
  VA   - Mayer's total valence
  BVA  - Mayer's bonded valence
  FA   - Mayer's free valence

  ATOM       NA         ZA         QA         VA         BVA        FA
  0 C      6.0398     6.0000    -0.0398     4.3529     4.3529     0.0000
  1 N      7.2042     7.0000    -0.2042     2.6984     2.6984    -0.0000
  2 C      6.2942     6.0000    -0.2942     3.9753     3.9753    -0.0000
  3 C      6.2610     6.0000    -0.2610     4.3449     4.3449     0.0000
  4 C      5.5737     6.0000     0.4263     4.1785     4.1785     0.0000
  5 C      6.0577     6.0000    -0.0577     3.2946     3.2946     0.0000
  6 N      7.1277     7.0000    -0.1277     3.9488     3.9488     0.0000
  7 O      8.0070     8.0000    -0.0070     2.1763     2.1763    -0.0000
  8 O      8.2287     8.0000    -0.2287     1.9999     1.9999    -0.0000
  9 F      9.1074     9.0000    -0.1074     0.9659     0.9659    -0.0000
 10 H      0.7038     1.0000     0.2962     0.8711     0.8711    -0.0000
 11 H      0.7189     1.0000     0.2811     0.9036     0.9036    -0.0000
 12 H      0.6742     1.0000     0.3258     0.8346     0.8346    -0.0000
 13 C      6.4186     6.0000    -0.4186     3.5841     3.5841    -0.0000
 14 H      0.8740     1.0000     0.1260     0.9430     0.9430    -0.0000
 15 H      0.8727     1.0000     0.1273     0.9423     0.9423     0.0000
 16 H      0.8727     1.0000     0.1273     0.9423     0.9423     0.0000
 17 S     16.9637    16.0000    -0.9637     0.5993     0.5993    -0.0000

  Mayer bond orders larger than 0.100000
B(  0-C ,  1-N ) :   1.2931 B(  0-C ,  2-C ) :   0.1912 B(  0-C ,  3-C ) :   0.1467 
B(  0-C ,  4-C ) :   0.3097 B(  0-C ,  5-C ) :   1.1885 B(  0-C ,  6-N ) :  -0.1808 
B(  0-C ,  9-F ) :   1.4052 B(  1-N ,  2-C ) :   1.1813 B(  1-N ,  5-C ) :   0.1783 
B(  2-C ,  3-C ) :   1.5845 B(  2-C , 10-H ) :   0.8832 B(  3-C ,  4-C ) :   1.4842 
B(  3-C ,  8-O ) :   0.1298 B(  3-C , 11-H ) :   0.8434 B(  4-C ,  5-C ) :   1.5877 
[...]
 290   0.0000       5.212824       141.8482 
 291   0.0000       5.288794       143.9154 
 292   0.0000       5.370345       146.1345 
 293   0.0000       5.851991       159.2408 
 294   0.0000       6.343259       172.6089 
 295   0.0000       6.416112       174.5913 
 296   0.0000       6.550695       178.2535 
 297   0.0000       6.863185       186.7568 
 298   0.0000       7.978673       217.1107 
 299   0.0000      17.545481       477.4368 
 300   0.0000      17.549336       477.5417 
 301   0.0000      17.638957       479.9804 
 302   0.0000      23.700979       644.9364 
 303   0.0000      23.954281       651.8291 
 304   0.0000      24.019949       653.6160 
 305   0.0000      24.030470       653.9023 
 306   0.0000      24.134551       656.7345 
 307   0.0000      24.245682       659.7586 
 308   0.0000      35.452770       964.7189 
 309   0.0000      35.736679       972.4445 
 310   0.0000      49.929018      1358.6377 
 311   0.0000      50.036252      1361.5556 
 312   0.0000      66.806219      1817.8896 
 313   0.0000     188.967630      5142.0706 

--------------------
FRAGMENT INFORMATION
--------------------
Fragment  1:    0   1   2   3   4   5 
Fragment  2:    6   7   8   9  10  11  12 
Fragment  3:   13  14  15  16 
Fragment  4:   17 


                    ********************************
                    * MULLIKEN POPULATION ANALYSIS *
                    ********************************

-------------------------
MULLIKEN FRAGMENT CHARGES
-------------------------
 Fragment   0 :  -0.464897
 Fragment   1 :   0.466420
 Fragment   2 :  -0.038119
 Fragment   3 :  -0.963404
Sum of fragment charges:   -1.0000000

---------------------------------
MULLIKEN FRAGMENT OVERLAP CHARGES
---------------------------------
                  0          1          2          3    
      0      18.515910   0.499459  -0.000071   0.000275
      1       0.499459  34.980132   0.001361   0.000161
      2      -0.000071   0.001361  11.670270  -0.670637
      3       0.000275   0.000161  -0.670637  17.298505

-----------------------
MULLIKEN ATOMIC CHARGES
-----------------------
   0 C :   -0.006405
   1 N :   -0.195671
   2 C :   -0.280163
   3 C :   -0.331175
   4 C :    0.504724
   5 C :   -0.156206
   6 N :   -0.074070
   7 O :   -0.116853
   8 O :   -0.102766
   9 F :   -0.124639
  10 H :    0.284101
  11 H :    0.278593
  12 H :    0.322053
  13 C :   -0.418653
  14 H :    0.126114
  15 H :    0.127090
  16 H :    0.127331
  17 S :   -0.963404
Sum of atomic charges:   -1.0000000

--------------------------------
MULLIKEN REDUCED ORBITAL CHARGES
--------------------------------
  0 C s       :     3.245292  s :     3.245292
      pz      :     0.667171  p :     2.591193
      px      :     0.978235
      py      :     0.945787
      dz2     :     0.057123  d :     0.169920
      dxz     :     0.050436
      dyz     :     0.029383
      dx2y2   :     0.014635
      dxy     :     0.018342
  1 N s       :     3.605285  s :     3.605285
      pz      :     1.150710  p :     3.555883
      px      :     1.250826
      py      :     1.154347
      dz2     :     0.008739  d :     0.034502
      dxz     :     0.008608
      dyz     :     0.005245
      dx2y2   :     0.006083
      dxy     :     0.005827
  2 C s       :     3.316852  s :     3.316852
      pz      :     0.824930  p :     2.874361
      px      :     1.176675
      py      :     0.872756
      dz2     :     0.025139  d :     0.088951
      dxz     :     0.033515
      dyz     :     0.015901
      dx2y2   :     0.007883
      dxy     :     0.006513
  3 C s       :     3.263440  s :     3.263440
      pz      :     1.156898  p :     3.012083
      px      :     0.885643
      py      :     0.969542
      dz2     :     0.015901  d :     0.055652
      dxz     :     0.018401
      dyz     :     0.005654
      dx2y2   :     0.008177
      dxy     :     0.007521
  4 C s       :     2.400531  s :     2.400531
      pz      :     0.939473  p :     3.035072
      px      :     1.246001
      py      :     0.849597
      dz2     :     0.017207  d :     0.059673
      dxz     :     0.016132
      dyz     :     0.011304
      dx2y2   :     0.007811
      dxy     :     0.007219
  5 C s       :     3.334875  s :     3.334875
      pz      :     1.114769  p :     2.747758
      px      :     0.505659
      py      :     1.127329
      dz2     :     0.013163  d :     0.073574
      dxz     :     0.030884
      dyz     :     0.010304
      dx2y2   :     0.011061
      dxy     :     0.008162
  6 N s       :     3.530593  s :     3.530593
      pz      :     1.056707  p :     3.404603
      px      :     1.237748
      py      :     1.110148
      dz2     :     0.038134  d :     0.138874
      dxz     :     0.045070
      dyz     :     0.029095
      dx2y2   :     0.011922
      dxy     :     0.014653
  7 O s       :     3.770082  s :     3.770082
      pz      :     1.015187  p :     4.328587
      px      :     1.836347
      py      :     1.477054
      dz2     :     0.009761  d :     0.018184
      dxz     :     0.003262
      dyz     :     0.005002
      dx2y2   :     0.000096
      dxy     :     0.000063
  8 O s       :     3.773868  s :     3.773868
      pz      :     1.545674  p :     4.308754
      px      :     1.331286
      py      :     1.431793
      dz2     :     0.002428  d :     0.020144
      dxz     :     0.007427
      dyz     :     0.002086
      dx2y2   :     0.004195
      dxy     :     0.004009
  9 F s       :     3.920505  s :     3.920505
      pz      :     1.400599  p :     5.198904
      px      :     1.918933
      py      :     1.879372
      dz2     :     0.003046  d :     0.005230
      dxz     :     0.000973
      dyz     :     0.001171
      dx2y2   :     0.000030
      dxy     :     0.000010
 10 H s       :     0.692611  s :     0.692611
      pz      :     0.004503  p :     0.023288
      px      :     0.014456
      py      :     0.004329
 11 H s       :     0.696214  s :     0.696214
      pz      :     0.016407  p :     0.025193
      px      :     0.003793
      py      :     0.004993
 12 H s       :     0.652097  s :     0.652097
      pz      :     0.007439  p :     0.025850
      px      :     0.013984
      py      :     0.004428
 13 C s       :     3.279590  s :     3.279590
      pz      :     1.050465  p :     3.086453
      px      :     0.975616
      py      :     1.060373
      dz2     :     0.014975  d :     0.052609
      dxz     :     0.008670
      dyz     :     0.004428
      dx2y2   :     0.008755
      dxy     :     0.015781
 14 H s       :     0.851163  s :     0.851163
      pz      :     0.013320  p :     0.022724
      px      :     0.004662
      py      :     0.004742
 15 H s       :     0.850194  s :     0.850194
      pz      :     0.005314  p :     0.022716
      px      :     0.006454
      py      :     0.010948
 16 H s       :     0.849955  s :     0.849955
      pz      :     0.006067  p :     0.022714
      px      :     0.006784
      py      :     0.009863
 17 S s       :     6.006593  s :     6.006593
      pz      :     3.893618  p :    10.925406
      px      :     3.035744
      py      :     3.996044
      dz2     :     0.004208  d :     0.031405
      dxz     :     0.008677
      dyz     :     0.000313
      dx2y2   :     0.013984
      dxy     :     0.004224


                     *******************************
                     * LOEWDIN POPULATION ANALYSIS *
                     *******************************

------------------------
LOEWDIN FRAGMENT CHARGES
------------------------
 Fragment   0 :   0.031437
 Fragment   1 :  -0.030632
 Fragment   2 :  -0.355152
 Fragment   3 :  -0.645653

----------------------------
LOEWDIN FRAGMENT BOND ORDERS
----------------------------
                  0          1          2          3    
      0      57.200151   6.725062   0.000033   0.000397
      1       6.725062  44.209033   0.000521   0.003553
      2       0.000033   0.000521  15.418727   1.743691
      3       0.000397   0.003553   1.743691  16.645653

----------------------
LOEWDIN ATOMIC CHARGES
----------------------
   0 C :    0.082296
   1 N :   -0.082024
   2 C :    0.056284
   3 C :   -0.034079
   4 C :    0.073308
   5 C :   -0.064350
   6 N :    0.202223
   7 O :   -0.218780
   8 O :   -0.193621
   9 F :   -0.088937
  10 H :    0.083369
  11 H :    0.085614
  12 H :    0.099499
  13 C :   -0.358296
  14 H :    0.000895
  15 H :    0.001080
  16 H :    0.001170
  17 S :   -0.645653

-------------------------------
LOEWDIN REDUCED ORBITAL CHARGES
-------------------------------
  0 C s       :     2.731104  s :     2.731104
      pz      :     0.851608  p :     2.835985
      px      :     1.095712
      py      :     0.888665
      dz2     :     0.121747  d :     0.350614
      dxz     :     0.104076
      dyz     :     0.052082
      dx2y2   :     0.037200
      dxy     :     0.035509
  1 N s       :     3.109055  s :     3.109055
      pz      :     1.300438  p :     3.908026
      px      :     1.433760
      py      :     1.173828
      dz2     :     0.018983  d :     0.064943
      dxz     :     0.018358
      dyz     :     0.009093
      dx2y2   :     0.010697
      dxy     :     0.007813
  2 C s       :     2.774349  s :     2.774349
      pz      :     1.042563  p :     2.975670
      px      :     1.092396
      py      :     0.840711
      dz2     :     0.064248  d :     0.193697
      dxz     :     0.072941
      dyz     :     0.030609
      dx2y2   :     0.015173
      dxy     :     0.010726
  3 C s       :     2.772421  s :     2.772421
      pz      :     1.079559  p :     3.132149
      px      :     1.096720
      py      :     0.955869
      dz2     :     0.035223  d :     0.129509
      dxz     :     0.047252
      dyz     :     0.008790
      dx2y2   :     0.022392
      dxy     :     0.015852
  4 C s       :     2.769144  s :     2.769144
      pz      :     1.074755  p :     3.022739
      px      :     1.105052
      py      :     0.842932
      dz2     :     0.042558  d :     0.134809
      dxz     :     0.040572
      dyz     :     0.022852
      dx2y2   :     0.016221
      dxy     :     0.012605
  5 C s       :     2.753125  s :     2.753125
      pz      :     1.090403  p :     3.129205
      px      :     0.958772
      py      :     1.080031
      dz2     :     0.039636  d :     0.182019
      dxz     :     0.074036
      dyz     :     0.020033
      dx2y2   :     0.030921
      dxy     :     0.017392
  6 N s       :     2.998109  s :     2.998109
      pz      :     1.219920  p :     3.530955
      px      :     1.230441
      py      :     1.080593
      dz2     :     0.080772  d :     0.268713
      dxz     :     0.092478
      dyz     :     0.045976
      dx2y2   :     0.025590
      dxy     :     0.023896
  7 O s       :     3.573976  s :     3.573976
      pz      :     1.275098  p :     4.613163
      px      :     1.847384
      py      :     1.490682
      dz2     :     0.020467  d :     0.031641
      dxz     :     0.004828
      dyz     :     0.006162
      dx2y2   :     0.000116
      dxy     :     0.000066
  8 O s       :     3.548540  s :     3.548540
      pz      :     1.672931  p :     4.609798
      px      :     1.487299
      py      :     1.449568
      dz2     :     0.003691  d :     0.035284
      dxz     :     0.015318
      dyz     :     0.002838
      dx2y2   :     0.008182
      dxy     :     0.005255
  9 F s       :     3.713826  s :     3.713826
      pz      :     1.539865  p :     5.367855
      px      :     1.937226
      py      :     1.890765
      dz2     :     0.004689  d :     0.007255
      dxz     :     0.001171
      dyz     :     0.001345
      dx2y2   :     0.000040
      dxy     :     0.000010
 10 H s       :     0.848041  s :     0.848041
      pz      :     0.014090  p :     0.068590
      px      :     0.042806
      py      :     0.011694
 11 H s       :     0.842198  s :     0.842198
      pz      :     0.047389  p :     0.072187
      px      :     0.011382
      py      :     0.013415
 12 H s       :     0.827042  s :     0.827042
      pz      :     0.021841  p :     0.073459
      px      :     0.040174
      py      :     0.011445
 13 C s       :     2.858483  s :     2.858483
      pz      :     1.121388  p :     3.392940
      px      :     1.153558
      py      :     1.117994
      dz2     :     0.030015  d :     0.106873
      dxz     :     0.018034
      dyz     :     0.007908
      dx2y2   :     0.019477
      dxy     :     0.031439
 14 H s       :     0.927350  s :     0.927350
      pz      :     0.043282  p :     0.071756
      px      :     0.014741
      py      :     0.013733
 15 H s       :     0.927154  s :     0.927154
      pz      :     0.015707  p :     0.071766
      px      :     0.021301
      py      :     0.034758
 16 H s       :     0.927062  s :     0.927062
      pz      :     0.018219  p :     0.071768
      px      :     0.022477
      py      :     0.031072
 17 S s       :     5.612336  s :     5.612336
      pz      :     3.858118  p :    10.996173
      px      :     3.201254
      py      :     3.936800
      dz2     :     0.004968  d :     0.037144
      dxz     :     0.010236
      dyz     :     0.000342
      dx2y2   :     0.016861
      dxy     :     0.004738


                      *****************************
                      * MAYER POPULATION ANALYSIS *
                      *****************************

  NA   - Mulliken gross atomic population
  ZA   - Total nuclear charge
  QA   - Mulliken gross atomic charge
  VA   - Mayer's total valence
  BVA  - Mayer's bonded valence
  FA   - Mayer's free valence

  ATOM       NA         ZA         QA         VA         BVA        FA
  0 C      6.0064     6.0000    -0.0064     4.2691     4.2691    -0.0000
  1 N      7.1957     7.0000    -0.1957     2.7244     2.7244    -0.0000
  2 C      6.2802     6.0000    -0.2802     4.0204     4.0204     0.0000
  3 C      6.3312     6.0000    -0.3312     4.4888     4.4888    -0.0000
  4 C      5.4953     6.0000     0.5047     4.0764     4.0764    -0.0000
  5 C      6.1562     6.0000    -0.1562     3.3246     3.3246    -0.0000
  6 N      7.0741     7.0000    -0.0741     4.0616     4.0616     0.0000
  7 O      8.1169     8.0000    -0.1169     2.0935     2.0935    -0.0000
  8 O      8.1028     8.0000    -0.1028     2.1959     2.1959    -0.0000
  9 F      9.1246     9.0000    -0.1246     0.9271     0.9271    -0.0000
 10 H      0.7159     1.0000     0.2841     0.8738     0.8738     0.0000
 11 H      0.7214     1.0000     0.2786     0.9081     0.9081     0.0000
 12 H      0.6779     1.0000     0.3221     0.8366     0.8366    -0.0000
 13 C      6.4187     6.0000    -0.4187     3.5847     3.5847    -0.0000
 14 H      0.8739     1.0000     0.1261     0.9429     0.9429     0.0000
 15 H      0.8729     1.0000     0.1271     0.9424     0.9424    -0.0000
 16 H      0.8727     1.0000     0.1273     0.9423     0.9423     0.0000
 17 S     16.9634    16.0000    -0.9634     0.5989     0.5989     0.0000

  Mayer bond orders larger than 0.100000
B(  0-C ,  1-N ) :   1.2971 B(  0-C ,  2-C ) :   0.1742 B(  0-C ,  3-C ) :   0.1729 
B(  0-C ,  4-C ) :   0.2619 B(  0-C ,  5-C ) :   1.2183 B(  0-C ,  6-N ) :  -0.1859 
B(  0-C ,  7-O ) :   0.1143 B(  0-C ,  8-O ) :  -0.1078 B(  0-C ,  9-F ) :   1.3515 
B(  1-N ,  2-C ) :   1.1690 B(  1-N ,  5-C ) :   0.1993 B(  2-C ,  3-C ) :   1.6611 
B(  2-C ,  5-C ) :   0.1003 B(  2-C , 10-H ) :   0.8846 B(  3-C ,  4-C ) :   1.4114 
B(  3-C ,  5-C ) :   0.1551 B(  3-C ,  8-O ) :   0.1567 B(  3-C , 11-H ) :   0.8383 
B(  4-C ,  5-C ) :   1.5497 B(  4-C ,  8-O ) :   0.2564 B(  4-C ,  9-F ) :  -0.1272 
B(  4-C , 12-H ) :   0.7222 B(  5-C ,  6-N ) :   0.6602 B(  5-C ,  7-O ) :  -0.1457 
B(  5-C ,  8-O ) :  -0.2321 B(  5-C ,  9-F ) :  -0.3340 B(  5-C , 12-H ) :   0.1406 
B(  6-N ,  7-O ) :   1.8309 B(  6-N ,  8-O ) :   1.8685 B(  7-O ,  8-O ) :   0.2364 
B( 13-C , 14-H ) :   0.9817 B( 13-C , 15-H ) :   0.9857 B( 13-C , 16-H ) :   0.9843 
B( 13-C , 17-S ) :   0.6325 

-------
TIMINGS
-------

Total SCF time: 0 days 0 hours 0 min 20 sec 

Total time                  ....      20.252 sec
Sum of individual times     ....      19.434 sec  ( 96.0%)

Fock matrix formation       ....      16.419 sec  ( 81.1%)
  Split-RI-J                ....       1.012 sec  (  6.2% of F)
  Chain of spheres X        ....      11.534 sec  ( 70.2% of F)
  XC integration            ....       1.922 sec  ( 11.7% of F)
    Basis function eval.    ....       0.178 sec  (  9.2% of XC)
    Density eval.           ....       0.198 sec  ( 10.3% of XC)
    XC-Functional eval.     ....       0.104 sec  (  5.4% of XC)
    XC-Potential eval.      ....       0.118 sec  (  6.1% of XC)
Diagonalization             ....       0.027 sec  (  0.1%)
Density matrix formation    ....       0.010 sec  (  0.0%)
Population analysis         ....       0.102 sec  (  0.5%)
Initial guess               ....       0.046 sec  (  0.2%)
Orbital Transformation      ....       0.000 sec  (  0.0%)
Orbital Orthonormalization  ....       0.034 sec  (  0.2%)
DIIS solution               ....       0.011 sec  (  0.1%)
SOSCF solution              ....       0.156 sec  (  0.8%)
Grid generation             ....       2.664 sec  ( 13.2%)

Maximum memory used throughout the entire SCF-calculation: 68.2 MB

-------------------------   --------------------
FINAL SINGLE POINT ENERGY      -990.265199269615
-------------------------   --------------------

                                *** OPTIMIZATION RUN DONE ***

                            ***************************************
                            *     ORCA property calculations      *
                            ***************************************

                                    ---------------------
                                    Active property flags
                                    ---------------------
   (+) Dipole Moment


------------------------------------------------------------------------------
                       ORCA ELECTRIC PROPERTIES CALCULATION
------------------------------------------------------------------------------

Dipole Moment Calculation                       ... on
Quadrupole Moment Calculation                   ... off
Polarizability Calculation                      ... off
GBWName                                         ... structure_opt.gbw
Electron density                                ... structure_opt.scfp
The origin for moment calculation is the CENTER OF MASS  = (-4.658359,  0.210405  2.291027)

-------------
DIPOLE MOMENT
-------------
                                X             Y             Z
Electronic contribution:     21.16134       0.56346       9.55235
Nuclear contribution   :    -12.53914      -0.56135      -0.46710
                        -----------------------------------------
Total Dipole Moment    :      8.62219       0.00211       9.08525
                        -----------------------------------------
Magnitude (a.u.)       :     12.52534
Magnitude (Debye)      :     31.83687



--------------------
Rotational spectrum 
--------------------
 
Rotational constants in cm-1:     0.072956     0.006410     0.005930 
Rotational constants in MHz :  2187.151532   192.179214   177.777303 

 Dipole components along the rotational axes: 
x,y,z [a.u.] :   -12.317518     2.263207     0.201661 
x,y,z [Debye]:   -31.308643     5.752615     0.512580 

 

Timings for individual modules:

Sum of individual times         ...     1250.184 sec (=  20.836 min)
GTO integral calculation        ...       77.234 sec (=   1.287 min)   6.2 %
SCF iterations                  ...      964.474 sec (=  16.075 min)  77.1 %
SCF Gradient evaluation         ...      207.154 sec (=   3.453 min)  16.6 %
Geometry relaxation             ...        1.322 sec (=   0.022 min)   0.1 %
                             ****ORCA TERMINATED NORMALLY****
TOTAL RUN TIME: 0 days 0 hours 22 minutes 21 seconds 16 msec
