
                                 *****************
                                 * O   R   C   A *
                                 *****************

                                            #,                                       
                                            ###                                      
                                            ####                                     
                                            #####                                    
                                            ######                                   
                                           ########,                                 
                                     ,,################,,,,,                         
                               ,,#################################,,                 
                          ,,##########################################,,             
                       ,#########################################, ''#####,          
                    ,#############################################,,   '####,        
                  ,##################################################,,,,####,       
                ,###########''''           ''''###############################       
              ,#####''   ,,,,##########,,,,          '''####'''          '####       
            ,##' ,,,,###########################,,,                        '##       
           ' ,,###''''                  '''############,,,                           
         ,,##''                                '''############,,,,        ,,,,,,###''
      ,#''                                            '''#######################'''  
     '                                                          ''''####''''         
             ,#######,   #######,   ,#######,      ##                                
            ,#'     '#,  ##    ##  ,#'     '#,    #''#        ######   ,####,        
            ##       ##  ##   ,#'  ##            #'  '#       #        #'  '#        
            ##       ##  #######   ##           ,######,      #####,   #    #        
            '#,     ,#'  ##    ##  '#,     ,#' ,#      #,         ##   #,  ,#        
             '#######'   ##     ##  '#######'  #'      '#     #####' # '####'        



                  #######################################################
                  #                        -***-                        #
                  #          Department of theory and spectroscopy      #
                  #    Directorship and core code : Frank Neese         #
                  #        Max Planck Institute fuer Kohlenforschung    #
                  #                Kaiser Wilhelm Platz 1               #
                  #                 D-45470 Muelheim/Ruhr               #
                  #                      Germany                        #
                  #                                                     #
                  #                  All rights reserved                #
                  #                        -***-                        #
                  #######################################################


                         Program Version 5.0.1 -  RELEASE  -


 With contributions from (in alphabetic order):
   Daniel Aravena         : Magnetic Suceptibility
   Michael Atanasov       : Ab Initio Ligand Field Theory (pilot matlab implementation)
   Alexander A. Auer      : GIAO ZORA, VPT2 properties, NMR spectrum
   Ute Becker             : Parallelization
   Giovanni Bistoni       : ED, misc. LED, open-shell LED, HFLD
   Martin Brehm           : Molecular dynamics
   Dmytro Bykov           : SCF Hessian
   Vijay G. Chilkuri      : MRCI spin determinant printing, contributions to CSF-ICE
   Dipayan Datta          : RHF DLPNO-CCSD density
   Achintya Kumar Dutta   : EOM-CC, STEOM-CC
   Dmitry Ganyushin       : Spin-Orbit,Spin-Spin,Magnetic field MRCI
   Miquel Garcia          : C-PCM and meta-GGA Hessian, CC/C-PCM, Gaussian charge scheme
   Yang Guo               : DLPNO-NEVPT2, F12-NEVPT2, CIM, IAO-localization
   Andreas Hansen         : Spin unrestricted coupled pair/coupled cluster methods
   Benjamin Helmich-Paris : MC-RPA, TRAH-SCF, COSX integrals
   Lee Huntington         : MR-EOM, pCC
   Robert Izsak           : Overlap fitted RIJCOSX, COSX-SCS-MP3, EOM
   Marcus Kettner         : VPT2
   Christian Kollmar      : KDIIS, OOCD, Brueckner-CCSD(T), CCSD density, CASPT2, CASPT2-K
   Simone Kossmann        : Meta GGA functionals, TD-DFT gradient, OOMP2, MP2 Hessian
   Martin Krupicka        : Initial AUTO-CI
   Lucas Lang             : DCDCAS
   Marvin Lechner         : AUTO-CI (C++ implementation), FIC-MRCC
   Dagmar Lenk            : GEPOL surface, SMD
   Dimitrios Liakos       : Extrapolation schemes; Compound Job, initial MDCI parallelization
   Dimitrios Manganas     : Further ROCIS development; embedding schemes
   Dimitrios Pantazis     : SARC Basis sets
   Anastasios Papadopoulos: AUTO-CI, single reference methods and gradients
   Taras Petrenko         : DFT Hessian,TD-DFT gradient, ASA, ECA, R-Raman, ABS, FL, XAS/XES, NRVS
   Peter Pinski           : DLPNO-MP2, DLPNO-MP2 Gradient
   Christoph Reimann      : Effective Core Potentials
   Marius Retegan         : Local ZFS, SOC
   Christoph Riplinger    : Optimizer, TS searches, QM/MM, DLPNO-CCSD(T), (RO)-DLPNO pert. Triples
   Tobias Risthaus        : Range-separated hybrids, TD-DFT gradient, RPA, STAB
   Michael Roemelt        : Original ROCIS implementation
   Masaaki Saitow         : Open-shell DLPNO-CCSD energy and density
   Barbara Sandhoefer     : DKH picture change effects
   Avijit Sen             : IP-ROCIS
   Kantharuban Sivalingam : CASSCF convergence, NEVPT2, FIC-MRCI
   Bernardo de Souza      : ESD, SOC TD-DFT
   Georgi Stoychev        : AutoAux, RI-MP2 NMR, DLPNO-MP2 response
   Willem Van den Heuvel  : Paramagnetic NMR
   Boris Wezisla          : Elementary symmetry handling
   Frank Wennmohs         : Technical directorship


 We gratefully acknowledge several colleagues who have allowed us to
 interface, adapt or use parts of their codes:
   Stefan Grimme, W. Hujo, H. Kruse, P. Pracht,  : VdW corrections, initial TS optimization,
                  C. Bannwarth, S. Ehlert          DFT functionals, gCP, sTDA/sTD-DF
   Ed Valeev, F. Pavosevic, A. Kumar             : LibInt (2-el integral package), F12 methods
   Garnet Chan, S. Sharma, J. Yang, R. Olivares  : DMRG
   Ulf Ekstrom                                   : XCFun DFT Library
   Mihaly Kallay                                 : mrcc  (arbitrary order and MRCC methods)
   Jiri Pittner, Ondrej Demel                    : Mk-CCSD
   Frank Weinhold                                : gennbo (NPA and NBO analysis)
   Christopher J. Cramer and Donald G. Truhlar   : smd solvation model
   Lars Goerigk                                  : TD-DFT with DH, B97 family of functionals
   V. Asgeirsson, H. Jonsson                     : NEB implementation
   FAccTs GmbH                                   : IRC, NEB, NEB-TS, DLPNO-Multilevel, CI-OPT
                                                   MM, QMMM, 2- and 3-layer-ONIOM, Crystal-QMMM,
                                                   LR-CPCM, SF, NACMEs, symmetry and pop. for TD-DFT,
                                                   nearIR, NL-DFT gradient (VV10), updates on ESD,
                                                   ML-optimized integration grids
   S Lehtola, MJT Oliveira, MAL Marques          : LibXC Library
   Liviu Ungur et al                             : ANISO software


 Your calculation uses the libint2 library for the computation of 2-el integrals
 For citations please refer to: http://libint.valeyev.net

 Your ORCA version has been built with support for libXC version: 5.1.0
 For citations please refer to: https://tddft.org/programs/libxc/

 This ORCA versions uses:
   CBLAS   interface :  Fast vector & matrix operations
   LAPACKE interface :  Fast linear algebra routines
   SCALAPACK package :  Parallel linear algebra routines
   Shared memory     :  Shared parallel matrices
   BLAS/LAPACK       :  OpenBLAS 0.3.15  USE64BITINT DYNAMIC_ARCH NO_AFFINITY SkylakeX SINGLE_THREADED
        Core in use  :  SkylakeX
   Copyright (c) 2011-2014, The OpenBLAS Project




***************************************
The coordinates will be read from file: structure_opt.xyz
***************************************


Your calculation utilizes the atom-pairwise dispersion correction
based on tight binding partial charges (D4)
Cite in your paper:
E.Caldeweyher, C.Bannwarth, S.Grimme, J.Chem.Phys., (2017), 147, 034112.
E.Caldeweyher, S.Ehlert, A.Hansen, H.Neugebauer, S.Grimme, J.Chem.Phys., (2018), in progress.
   

Your calculation utilizes the SMD solvation module
Please cite in your paper:
A.V. Marenich, C.J. Cramer, D.G. Truhlar J. Phys. Chem. B, 113, (2009), 6378 

XCFun DFT library Copyright 2009-2010 Ulf Ekstrom and contributors.
See http://admol.org/xcfun for more information.
This is free software; see the source code for copying conditions.
There is ABSOLUTELY NO WARRANTY; not even for MERCHANTABILITY or FITNESS FOR A PARTICULAR PURPOSE.
For details see the documentation.
Scientific users of this library should cite U. Ekstrom, L. Visscher, R. Bast, A. J. Thorvaldsen and K. Ruud;
J.Chem.Theor.Comp. 2010, DOI: 10.1021/ct100117s
XCFun Version 0.99 

Your calculation utilizes a Nudged-Elastic-Band implementation
 by V.Asgeirsson, C. Riplinger & H. Jonsson
Please cite in your paper:
 V. Asgeirsson et al., in prep. (2019)
   

================================================================================

----- Orbital basis set information -----
Your calculation utilizes the basis: 6-311++G**
   H, Li - Ne  : R. Krishnan, J. S. Binkley, R. Seeger and J. A. Pople, J. Chem. Phys. 72, 650 (1980).
   Na - Ar     : A. D. McLean and G. S. Chandler J. Chem. Phys. 72, 5639, (1980).
   K  - Ca     : J.-P. Blaudeau, M. P. McGrath, L. A. Curtiss and L. Radom, J. Chem. Phys. 107, 5016 (1997).
   Ga - Kr     : L. A. Curtiss, M. P. McGrath, J.-P. Blandeau, N. E. Davis, R. C. Binning and L. Radom, J. Chem. Phys. 103, 6104 (1995).
   Pol./Diff.
   H, Li - Cl  : T. Clark, J. Chandrasekhar and P. v. R. Schleyer, J. Comp. Chem. 4, 294 (1983).
   H - Ne      : M. J. Frisch, J. A. Pople and J. S. Binkley, J. Chem. Phys. 80, 3265 (1984).

----- AuxJ basis set information -----
Your calculation utilizes the auxiliary basis: def2/J
   F. Weigend, Phys. Chem. Chem. Phys. 8, 1057 (2006).

================================================================================
                                        WARNINGS
                       Please study these warnings very carefully!
================================================================================


WARNING: The environment variable RSH_COMMAND is not set!
  ===> : All Displacements for the Numerical Hessian calculation
         will be started on localhost

WARNING: Geometry Optimization
  ===> : Switching off AutoStart
         For restart on a previous wavefunction, please use MOREAD

INFO   : the flag for use of the SHARK integral package has been found!

================================================================================
                                       INPUT FILE
================================================================================
NAME = TS_search_opt_without_h.inp
|  1> !wb97x 6-311++G** D4 NEB-TS OPT NUMFREQ CPCM(WATER)
|  2> %maxcore  3500
|  3> %pal
|  4> nprocs 24
|  5> end
|  6> %cpcm
|  7> smd true
|  8> SMDsolvent "water"
|  9> end
| 10> %geom
| 11> MaxIter 1000   # allows for n optimization cycles
| 12> EnforceStrictConvergence False
| 13> end
| 14> %NEB NEB_END_XYZFILE "2f3_prod_opt.xyz" END
| 15> * XYZfile -1 1 structure_opt.xyz
| 16> 
| 17>                          ****END OF INPUT****
================================================================================


------------------------------------------------------------------------------- 
                         Nudged Elastic Band Calculation                       
------------------------------------------------------------------------------- 

Number of images (incl. end points)     ....  10
Number of intermediate images           ....  8
Number of optimized images              ....  8
Optimization of end points before NEB   ....  NO
Use existing gbw files for MO input     ....  NO
Number of atoms                         ....  18
Number of (active) degrees of freedom   ....  54
Constrained atoms                       ....  None

-----------------------------------------
  REACTANT (ANGSTROEM)
-----------------------------------------
C     -0.000854     0.001231     1.845882 
N      1.121520    -0.185351     2.471531 
C      1.191034    -0.196199     3.802380 
C      0.082409    -0.013401     4.598778 
C     -1.123217     0.186835     3.958589 
C     -1.194759     0.198220     2.574022 
N     -2.457263     0.408753     1.912995 
O     -2.539206     0.423225     0.667803 
O     -3.430621     0.569805     2.622682 
F      0.002474     0.001798     0.495886 
H      2.175845    -0.357493     4.227278 
H      0.150895    -0.025317     5.678398 
H     -2.031549     0.337005     4.527155 
C     -8.361641    -0.001801    -2.714728 
H     -8.397881    -0.089311    -3.804171 
H     -8.853089     0.928088    -2.415449 
H     -8.897079    -0.847063    -2.273526 
S     -6.648018    -0.001022    -2.153505 

-----------------------------------------
  PRODUCT (ANGSTROEM)
-----------------------------------------
C     -0.006655     0.014080     1.789576 
N      1.150760    -0.163122     2.425247 
C      1.177726    -0.139964     3.759145 
C      0.054738     0.057580     4.546999 
C     -1.158972     0.233636     3.911162 
C     -1.178720     0.217442     2.525234 
N     -2.493686     0.427964     1.904940 
O     -2.584738     1.164910     0.947848 
O     -3.439094    -0.145340     2.414303 
F      3.139899     2.499865     0.919104 
H      2.152169    -0.281946     4.215772 
H      0.130494     0.071637     5.627108 
H     -2.077395     0.389730     4.465403 
C      0.049505     1.625975    -0.482258 
H     -0.875798     2.113075    -0.187252 
H      0.131238     1.624494    -1.570971 
H      0.921382     2.132605    -0.060262 
S      0.064147    -0.119619     0.009902 



----------------------
NEB settings
----------------------
Method type                             ....  climbing image
Threshold for climbing image            ....  2.00e-02 Eh/Bohr 
Free endpoints                          ....  off 
Tangent type                            ....  improved 
Number of intermediate images           ....  8 
Number of images free to move           ....  8 
Spring type for image distribution      ....  distance between adjacent images 
Spring constant                         ....  energy weighted (0.0100 -to- 0.1000) Eh/Bohr^2 
Spring force perp. to the path          ....  none 
Generation of initial path              ....  image dependent pair potential 
Initial path via TS guess               ....  off 

Minimization of RMSD: Rotation          ....  always 
Minimization of RMSD: Translation type  ....  centroid 
Center fixed to origin                  ....  true 
Remove external force                   ....  true 

Reparametrization of the path           ....  off 
Convergence thresholds:
Convergence monitored for               ....  all images
Scaling factor                          ....  10.00

Convergence parameters for regular images:
               Max(|Fp|)                ....  2.00e-02 Eh/Bohr
               RMS(Fp)                  ....  1.00e-02 Eh/Bohr

Convergence parameters for climbing image:
               Max(|F|)                 ....  2.00e-03 Eh/Bohr
               RMS(F)                   ....  1.00e-03 Eh/Bohr
Optimization method:
Method                                  ....  L-BFGS
Max. iterations                         ....  500 
Step size                               ....  1.00 
Maximum allowed step size               ....  0.10 Bohr

LBFGS parameters: 
               Memory                   ....  20 
               Initial step size        ....  0.0010 
               Estimate curvature       ....  YES 
               Reset on maxmove         ....  YES 
               Reparam. on reset        ....  NO 
Generation of  the initial path:
Minimize RMSD between reactant and product configurations     .... done
       RMSD before minimization         ....  5.2213 Bohr
       RMSD after minimization          ....  3.4880 Bohr
Performing linear interpolation         ....  done
Interpolation using                     ....  IDPP (Image Dependent Pair Potential)
IDPP-Settings:
       Remove global transl. and rot.   ...   true
       Convergence tolerance            ....  0.0100 1/Ang.^3
       Max. numer of iterations         ....    7000
       Spring constant                  ....  1.0000 1/Ang.^4
       Time step                        ....  0.0100 fs
       Max. movement per iteration      ....  0.0500 Ang.
       Full print                       ....  false 
idpp initial path generation successfully converged in 185 iterations
Displacement along initial path:             28.0241 Bohr
Writing initial trajectory to file      ....  TS_search_opt_without_h_initial_path_trj.xyz



----------------------
NEB OPTIMIZATION      
----------------------

Following output files will be written:
Energy profile during opt. written to    ....  TS_search_opt_without_h.interp
Optimization log-file                    ....  TS_search_opt_without_h.NEB.log
Current trajectory will be written to    ....  TS_search_opt_without_h_MEP_trj.xyz
       and to allxyz file                ....  TS_search_opt_without_h_MEP.allxyz
       and individual images to xyz file ....  TS_search_opt_without_h_im{NIm}.xyz
Trajectory history will be written to    ....  TS_search_opt_without_h_MEP_ALL_trj.xyz
Converged CI will be written to          ....  TS_search_opt_without_h_NEB-CI_converged.xyz
Converged TS will be written to          ....  TS_search_opt_without_h_NEB-TS_converged.xyz

Single point energy and gradient calculation of reactant and
product configurations (have to be performed only once)
Properties of fixed NEB end points:
               Reactant:
                         E               ....   -990.267674 Eh
                         RMS(F)          ....      0.010130 Eh/Bohr
                         MAX(|F|)        ....      0.036932 Eh/Bohr
      Warning: Reactant seems to be less converged than convergence tolerances.
               You might want to use free end NEB or preopt_ends true.
               Product:
                         E               ....   -990.305561 Eh
                         RMS(F)          ....      0.001270 Eh/Bohr
                         MAX(|F|)        ....      0.003465 Eh/Bohr



Starting iterations:

Optim.  Iteration  HEI  E(HEI)-E(0)  max(|Fp|)   RMS(Fp)    dS
Switch-on CI threshold               0.020000 
   LBFGS     0      5    0.204399    0.130794   0.020363  28.0241       
   LBFGS     1      5    0.181575    0.079973   0.010902  28.0098       
   LBFGS     2      5    0.179361    0.148662   0.015523  28.0055       
   LBFGS     3      5    0.170200    0.066937   0.008547  28.0044       
   LBFGS     4      5    0.170708    0.084580   0.009948  28.0097       
   LBFGS     5      5    0.174112    0.124135   0.012312  28.0332       
   LBFGS     6      5    0.161822    0.065291   0.006538  28.0349       
   LBFGS     7      5    0.166992    0.125421   0.011890  28.0470       
   LBFGS     8      5    0.170021    0.169228   0.015619  28.0792       
   LBFGS     9      5    0.158700    0.058935   0.005868  28.0815       
   LBFGS    10      5    0.159234    0.058962   0.006445  28.0898       
   LBFGS    11      5    0.162538    0.084252   0.009149  28.1202       
   LBFGS    12      5    0.162007    0.107847   0.010035  28.1338       
   LBFGS    13      5    0.158876    0.069938   0.008217  28.1447       
   LBFGS    14      5    0.157513    0.054323   0.007529  28.1752       
   LBFGS    15      5    0.158238    0.064091   0.007308  28.1836       
   LBFGS    16      5    0.158214    0.060996   0.008286  28.1996       
   LBFGS    17      5    0.159082    0.071198   0.009456  28.2299       
   LBFGS    18      5    0.158208    0.083904   0.008775  28.2405       
   LBFGS    19      5    0.155172    0.035478   0.005655  28.2465       
   LBFGS    20      5    0.156502    0.045086   0.007079  28.2786       
   LBFGS    21      5    0.157468    0.077816   0.007334  28.2941       
   LBFGS    22      5    0.155751    0.040576   0.006521  28.3106       
   LBFGS    23      5    0.156105    0.040933   0.007459  28.3508       
   LBFGS    24      5    0.154804    0.034798   0.005931  28.3672       
   LBFGS    25      5    0.154839    0.033845   0.005885  28.3890       
   LBFGS    26      5    0.154849    0.031724   0.005948  28.4333       
   LBFGS    27      5    0.154555    0.033747   0.005556  28.4610       
   LBFGS    28      5    0.154996    0.032735   0.006217  28.4993       
   LBFGS    29      5    0.155212    0.035395   0.006573  28.5493       
   LBFGS    30      5    0.154182    0.024205   0.005113  28.5702       
   LBFGS    31      5    0.154131    0.026268   0.005077  28.5946       
   LBFGS    32      5    0.154037    0.030265   0.005082  28.6410       
   LBFGS    33      5    0.153859    0.028601   0.004622  28.6682       
   LBFGS    34      5    0.154226    0.031646   0.005333  28.7045       
   LBFGS    35      5    0.154426    0.035512   0.005773  28.7534       
   LBFGS    36      5    0.153612    0.022761   0.004139  28.7687       
   LBFGS    37      5    0.153582    0.027369   0.004381  28.7897       
   LBFGS    38      5    0.153514    0.032639   0.004646  28.8336       
   LBFGS    39      5    0.153150    0.023735   0.003372  28.8530       
   LBFGS    40      5    0.153452    0.025780   0.004380  28.8832       
   LBFGS    41      5    0.153715    0.033416   0.005200  28.9317       
   LBFGS    42      5    0.153428    0.020806   0.003976  28.9467       
   LBFGS    43      5    0.153153    0.022833   0.003715  28.9634       

Possible intermediate minimum found at image(s): 1 
  => have a look at the .interp file.
  => it is often a good idea to divide the path calculation into smaller fragments. 

   LBFGS    44      5    0.152980    0.026865   0.003790  29.0090       
   LBFGS    45      5    0.153395    0.032463   0.003973  29.0314       
   LBFGS    46      5    0.153019    0.026657   0.004299  29.0603       
   LBFGS    47      5    0.153253    0.033221   0.005429  29.1116       
   LBFGS    48      5    0.153584    0.038605   0.003933  29.1248       
   LBFGS    49      5    0.153097    0.022933   0.003589  29.1377       
   LBFGS    50      5    0.154866    0.056943   0.005729  29.1734       
   LBFGS    51      5    0.157028    0.076544   0.006928  29.2253       
   LBFGS    52      5    0.153825    0.043459   0.004000  29.2352       
   LBFGS    53      5    0.152795    0.015130   0.002223  29.2397       

Image  5 will be converted to a climbing image in the next iteration (max(|Fp|) < 0.0200) 

Optim.  Iteration  CI   E(CI)-E(0)   max(|Fp|)   RMS(Fp)    dS     max(|FCI|)   RMS(FCI)
Convergence thresholds               0.020000   0.010000            0.002000    0.001000 
   LBFGS    54      5    0.152712    0.015091   0.001993  29.2410    0.007789    0.002103       
   LBFGS    55      5    0.154158    0.029854   0.003128  29.2684    0.047135    0.010207       
   LBFGS    56      5    0.155364    0.039335   0.004006  29.3087    0.060305    0.013464       
   LBFGS    57      5    0.152959    0.015715   0.002181  29.3168    0.028658    0.006047       
   LBFGS    58      5    0.152587    0.014089   0.001955  29.3222    0.012711    0.002859       
   LBFGS    59      5    0.152865    0.014947   0.002281  29.3668    0.025242    0.005282       
   LBFGS    60      5    0.153521    0.015628   0.002295  29.3839    0.047080    0.009907       
   LBFGS    61      5    0.152747    0.015346   0.002341  29.3956    0.027612    0.005782       
   LBFGS    62      5    0.152598    0.023114   0.002835  29.4486    0.015694    0.003858       
   LBFGS    63      5    0.152251    0.017278   0.002192  29.4619    0.008720    0.002522       
   LBFGS    64      5    0.152279    0.016555   0.002200  29.4779    0.009989    0.002648       
   LBFGS    65      5    0.152493    0.017952   0.002541  29.5320    0.015937    0.004114       
   LBFGS    66      5    0.152088    0.012731   0.002050  29.5466    0.009723    0.002656       
   LBFGS    67      5    0.152058    0.011267   0.001974  29.5625    0.010099    0.002617       
   LBFGS    68      5    0.152054    0.010983   0.001985  29.6176    0.010234    0.003230       
   LBFGS    69      5    0.152048    0.011844   0.001957  29.6343    0.019139    0.004405       
   LBFGS    70      5    0.151983    0.011385   0.001989  29.6535    0.014181    0.003689       
   LBFGS    71      5    0.152676    0.011206   0.002300  29.7120    0.028166    0.007742       
   LBFGS    72      5    0.151851    0.010276   0.001509  29.7181    0.024420    0.005115       
   LBFGS    73      5    0.151511    0.010166   0.001280  29.7260    0.015820    0.003393       
   LBFGS    74      5    0.151628    0.009418   0.001828  29.7650    0.009609    0.003275       

Possible intermediate minimum found at image(s): 1 
  => have a look at the .interp file.
  => it is often a good idea to divide the path calculation into smaller fragments. 

   LBFGS    75      5    0.152378    0.013491   0.002632  29.8352    0.019271    0.006320       
   LBFGS    76      5    0.151439    0.008077   0.001233  29.8412    0.027033    0.005846       
   LBFGS    77      5    0.151068    0.008294   0.001354  29.8515    0.010109    0.003024       
   LBFGS    78      5    0.151035    0.008478   0.001325  29.8610    0.010512    0.003041       
   LBFGS    79      5    0.150848    0.008763   0.001311  29.9329    0.011657    0.003472       
   LBFGS    80      5    0.150815    0.008582   0.001154  29.9426    0.023622    0.004943       
   LBFGS    81      5    0.150572    0.007134   0.001125  29.9527    0.014060    0.003259       
   LBFGS    82      5    0.150859    0.009255   0.001674  30.0054    0.011271    0.004281       
   LBFGS    83      5    0.151455    0.012876   0.002276  30.0890    0.025371    0.007249       
   LBFGS    84      5    0.150331    0.012074   0.001403  30.0910    0.024390    0.005920       
   LBFGS    85      5    0.149655    0.005683   0.000909  30.0949    0.008503    0.001914       
   LBFGS    86      5    0.149600    0.006367   0.000923  30.1027    0.004474    0.001558       
   LBFGS    87      5    0.149816    0.007549   0.001314  30.1311    0.016944    0.004656       
   LBFGS    88      5    0.150198    0.014969   0.002057  30.2062    0.030445    0.008079       
   LBFGS    89      5    0.149089    0.007136   0.001297  30.2074    0.019698    0.004623       
   LBFGS    90      5    0.148665    0.006162   0.000967  30.2098    0.013402    0.002981       
   LBFGS    91      5    0.148392    0.004176   0.000891  30.2195    0.004978    0.001642       
   LBFGS    92      5    0.148384    0.005693   0.001128  30.2325    0.010456    0.003251       
   LBFGS    93      5    0.148241    0.011016   0.002083  30.2956    0.021479    0.006305       
   LBFGS    94      5    0.147943    0.012412   0.002297  30.3782    0.036899    0.009362       
   LBFGS    95      5    0.146565    0.006419   0.001430  30.3734    0.026591    0.006612       
   LBFGS    96      5    0.145782    0.005028   0.000884  30.3704    0.017018    0.003751       
   LBFGS    97      5    0.145426    0.004548   0.000857  30.3660    0.006336    0.001743       
   LBFGS    98      5    0.145237    0.006349   0.001078  30.3642    0.009279    0.002766       
   LBFGS    99      5    0.144701    0.007740   0.001478  30.3695    0.024502    0.005998       
   LBFGS   100      5    0.143595    0.011222   0.002090  30.4007    0.034116    0.008232       
   LBFGS   101      5    0.143052    0.009489   0.001529  30.4082    0.028044    0.006213       
   LBFGS   102      5    0.142640    0.006788   0.001078  30.4171    0.021278    0.004717       
   LBFGS   103      5    0.142038    0.010865   0.001342  30.4438    0.007146    0.001991       
   LBFGS   104      5    0.141744    0.019355   0.002148  30.4642    0.007127    0.001804       
   LBFGS   105      5    0.141482    0.016356   0.002035  30.4833    0.007801    0.002323       

Possible intermediate minimum found at image(s): 1 
  => have a look at the .interp file.
  => it is often a good idea to divide the path calculation into smaller fragments. 

   LBFGS   106      5    0.140662    0.013444   0.001906  30.5562    0.015484    0.003841       
   LBFGS   107      5    0.140725    0.018648   0.002153  30.5465    0.022661    0.005020       
   LBFGS   108      5    0.140400    0.012084   0.001533  30.5400    0.015596    0.003604       
   LBFGS   109      5    0.139940    0.005134   0.001126  30.5493    0.007082    0.002252       
   LBFGS   110      5    0.139553    0.013665   0.001880  30.5819    0.006835    0.001709       
   LBFGS   111      5    0.138932    0.020903   0.002311  30.6777    0.012751    0.003350       
   LBFGS   112      5    0.138809    0.020423   0.002286  30.6932    0.013118    0.003516       
   LBFGS   113      5    0.138588    0.012089   0.001503  30.7022    0.008230    0.002434       
   LBFGS   114      5    0.138208    0.004126   0.000948  30.7290    0.006308    0.001695       
   LBFGS   115      5    0.137933    0.010888   0.001293  30.7365    0.006174    0.001625       
   LBFGS   116      5    0.136785    0.019959   0.002434  30.7858    0.007886    0.002891       
   LBFGS   117      5    0.136558    0.020118   0.002289  30.7722    0.009082    0.002616       
   LBFGS   118      5    0.136375    0.013534   0.001677  30.7628    0.006061    0.002167       
   LBFGS   119      5    0.135791    0.007073   0.001252  30.7488    0.005614    0.001918       
   LBFGS   120      5    0.135348    0.015621   0.002039  30.7692    0.005672    0.002138       
   LBFGS   121      5    0.134454    0.022294   0.002833  30.8254    0.006131    0.002749       
   LBFGS   122      5    0.132794    0.024884   0.003399  30.9227    0.007410    0.003132       
   LBFGS   123      5    0.132443    0.011039   0.002083  30.9232    0.005573    0.002255       
   LBFGS   124      5    0.132214    0.009175   0.001765  30.9227    0.005565    0.002097       
   LBFGS   125      5    0.130906    0.013392   0.002286  30.9331    0.010013    0.003419       
   LBFGS   126      5    0.129867    0.018316   0.003229  30.9386    0.011375    0.003810       
   LBFGS   127      5    0.129302    0.011476   0.002213  30.9286    0.008843    0.003101       
   LBFGS   128      5    0.125686    0.020408   0.002578  30.9107    0.006889    0.002465       
   LBFGS   129      5    0.125285    0.024327   0.002577  30.9039    0.006576    0.002322       
   LBFGS   130      5    0.124936    0.015325   0.002157  30.9002    0.006662    0.002317       
   LBFGS   131      5    0.122253    0.019821   0.002425  30.9275    0.007518    0.002550       
   LBFGS   132      5    0.121551    0.017885   0.002985  30.9380    0.007620    0.002542       
   LBFGS   133      5    0.120883    0.014939   0.002178  30.9465    0.007652    0.002415       
   LBFGS   134      5    0.118704    0.022847   0.002663  30.9848    0.007727    0.002652       
   LBFGS   135      5    0.115540    0.027732   0.003921  31.0635    0.008807    0.003289       
   LBFGS   136      5    0.114763    0.034447   0.003712  31.0464    0.008361    0.002963       
   LBFGS   137      5    0.114108    0.021255   0.002699  31.0357    0.008604    0.002783       
   LBFGS   138      5    0.111624    0.017820   0.002587  31.0322    0.009616    0.002957       
   LBFGS   139      5    0.109030    0.027463   0.004181  31.0659    0.010925    0.003574       
   LBFGS   140      5    0.104860    0.033424   0.004693  31.1404    0.013681    0.004363       
   LBFGS   141      5    0.099660    0.038384   0.005334  31.2437    0.015889    0.005023       
   LBFGS   142      5    0.097721    0.050084   0.006055  31.2318    0.014612    0.004302       
   LBFGS   143      5    0.096483    0.028265   0.003840  31.2282    0.014760    0.003951       
   LBFGS   144      5    0.093042    0.010616   0.002539  31.2678    0.014603    0.003961       
   LBFGS   145      5    0.090168    0.018639   0.003432  31.3102    0.014148    0.004282       
   LBFGS   146      5    0.084396    0.030560   0.004481  31.4113    0.013522    0.004783       
   LBFGS   147      5    0.082230    0.041625   0.005937  31.3869    0.014024    0.004342       
   LBFGS   148      5    0.081005    0.023367   0.003595  31.3754    0.014160    0.004214       
   LBFGS   149      5    0.075986    0.022185   0.003588  31.3794    0.014588    0.004623       
   LBFGS   150      5    0.073706    0.042172   0.004789  31.4059    0.014403    0.004432       
   LBFGS   151      5    0.071684    0.024249   0.003681  31.4310    0.014431    0.004484       
   LBFGS   152      5    0.065862    0.022765   0.003492  31.5200    0.014992    0.005083       
   LBFGS   153      5    0.061407    0.035985   0.004946  31.5411    0.016741    0.005301       
   LBFGS   154      5    0.057931    0.022774   0.003588  31.5678    0.017116    0.005385       
   LBFGS   155      5    0.049564    0.029137   0.003726  31.6698    0.017282    0.005650       
   LBFGS   156      5    0.044810    0.035819   0.004492  31.7090    0.016860    0.005459       
   LBFGS   157      5    0.040536    0.030412   0.003792  31.7520    0.017141    0.005655       
   LBFGS   158      5    0.030990    0.039946   0.004861  31.8895    0.015157    0.005788       
   LBFGS   159      5    0.027936    0.061755   0.005023  31.9133    0.016164    0.004926       
   LBFGS   160      5    0.025974    0.021184   0.003342  31.9285    0.016290    0.004897       
   LBFGS   161      5    0.020902    0.031697   0.004114  32.0029    0.015311    0.005167       
   LBFGS   162      5    0.015626    0.040715   0.005055  32.0960    0.014966    0.005536       
   LBFGS   163      5    0.014040    0.078901   0.005755  32.0585    0.010266    0.004201       
   LBFGS   164      5    0.013609    0.080361   0.006997  32.0351    0.013572    0.004685       
   LBFGS   165      4    0.019436    0.052453   0.004038  32.0331    0.015132    0.005046       
   LBFGS   166      4    0.019137    0.043675   0.003535  32.0252    0.010876    0.004982       
   LBFGS   167      4    0.019022    0.030895   0.002914  32.0458    0.017833    0.005972       
   LBFGS   168      4    0.018328    0.073028   0.005010  32.0594    0.015686    0.005832       
   LBFGS   169      4    0.019427    0.065211   0.004757  32.0816    0.021912    0.007868       
   LBFGS   170      5    0.020560    0.054693   0.004903  32.1523    0.012497    0.003684       
   LBFGS   171      5    0.021297    0.034536   0.004073  32.2638    0.010462    0.003669       
   LBFGS   172      5    0.020974    0.055415   0.004223  32.3105    0.006232    0.002550       
   LBFGS   173      5    0.020994    0.010940   0.001949  32.3383    0.006100    0.002468       
   LBFGS   174      5    0.021036    0.020139   0.002353  32.3975    0.005573    0.002566       
   LBFGS   175      5    0.020803    0.033310   0.003168  32.5424    0.006062    0.002456       
   LBFGS   176      5    0.020006    0.045385   0.003450  32.6714    0.005249    0.002095       
   LBFGS   177      5    0.019793    0.027836   0.002257  32.6675    0.004096    0.001659       
   LBFGS   178      5    0.019630    0.032531   0.002470  32.6743    0.003269    0.001633       
   LBFGS   179      5    0.018840    0.034130   0.002661  32.7659    0.003883    0.001593       
   LBFGS   180      5    0.018632    0.054348   0.003645  32.8142    0.003117    0.001424       
   LBFGS   181      5    0.018531    0.022148   0.001858  32.8365    0.003091    0.001407       
   LBFGS   182      5    0.017987    0.119018   0.007980  33.0036    0.005160    0.001706       
   LBFGS   183      5    0.017846    0.035005   0.003321  32.9822    0.003780    0.001431       
   LBFGS   184      5    0.017780    0.012311   0.001482  32.9968    0.003447    0.001379       
   LBFGS   185      5    0.017540    0.059033   0.005022  33.0682    0.003076    0.001330       
   LBFGS   186      5    0.017483    0.015280   0.001867  33.0785    0.003068    0.001321       
   LBFGS   187      5    0.017167    0.044002   0.003107  33.1757    0.003073    0.001333       
   LBFGS   188      5    0.016835    0.045978   0.003629  33.2790    0.003047    0.001325       
   LBFGS   189      5    0.016085    0.046847   0.003341  33.4469    0.002904    0.001207       
   LBFGS   190      5    0.015199    0.040119   0.003905  33.6824    0.003213    0.001234       
   LBFGS   191      5    0.015111    0.028928   0.002417  33.6497    0.002796    0.001136       
   LBFGS   192      5    0.015022    0.019316   0.001710  33.6336    0.002826    0.001115       
   LBFGS   193      5    0.014547    0.014625   0.001819  33.6510    0.002816    0.001116       
   LBFGS   194      5    0.014427    0.019832   0.002253  33.6946    0.002729    0.001063       
   LBFGS   195      5    0.014303    0.017830   0.002012  33.7420    0.002667    0.001075       
   LBFGS   196      5    0.013672    0.026152   0.002660  33.9602    0.002544    0.001045       
   LBFGS   197      5    0.013605    0.019302   0.001771  33.9443    0.002568    0.001002       
   LBFGS   198      5    0.013537    0.012414   0.001243  33.9382    0.002580    0.000991       
   LBFGS   199      5    0.013162    0.008971   0.001215  33.9633    0.002555    0.000979       
   LBFGS   200      5    0.012468    0.022785   0.002668  34.0780    0.002441    0.000937       
   LBFGS   201      5    0.011722    0.022021   0.002363  34.2417    0.002298    0.000882       
   LBFGS   202      5    0.011650    0.033775   0.002897  34.2764    0.002241    0.000848       
   LBFGS   203      5    0.011597    0.018742   0.001963  34.3054    0.002212    0.000846       
   LBFGS   204      5    0.011334    0.006424   0.001088  34.4735    0.002122    0.000855       
   LBFGS   205      5    0.011226    0.010248   0.001019  34.4861    0.002147    0.000817       
   LBFGS   206      5    0.010803    0.007555   0.001304  34.5989    0.002170    0.000892       
   LBFGS   207      5    0.009946    0.022273   0.002825  34.8736    0.002150    0.001000       
   LBFGS   208      5    0.009864    0.037789   0.003451  34.8286    0.001923    0.000775       
   LBFGS   209      5    0.009818    0.004754   0.001032  34.8133    0.001875    0.000770       

                                .--------------------.
          ----------------------| CI-NEB convergence |-------------------------
          Item                value                   Tolerance       Converged
          ---------------------------------------------------------------------
          RMS(Fp)             0.0010321247            0.0100000000      YES
          MAX(|Fp|)           0.0047537810            0.0200000000      YES
          RMS(FCI)            0.0007704009            0.0010000000      YES
          MAX(|FCI|)          0.0018750936            0.0020000000      YES
          ---------------------------------------------------------------------

The elastic band and climbing image have converged successfully to a MEP in 209 iterations!


                    *********************H U R R A Y*********************
                    ***        THE NEB OPTIMIZATION HAS CONVERGED     ***
                    *****************************************************



---------------------------------------------------------------
                         PATH SUMMARY              
---------------------------------------------------------------
All forces in Eh/Bohr.

Image Dist.(Ang.)    E(Eh)   dE(kcal/mol)  max(|Fp|)  RMS(Fp)
  0     0.000    -990.26767      0.00       0.03673   0.01013
  1     4.144    -990.27383     -3.86       0.00028   0.00010
  2     8.090    -990.27485     -4.51       0.00399   0.00093
  3    11.754    -990.27545     -4.88       0.00454   0.00158
  4    12.685    -990.26485      1.77       0.00244   0.00099
  5    13.017    -990.25786      6.16       0.00189   0.00077 <= CI
  6    13.242    -990.26416      2.20       0.00186   0.00093
  7    13.767    -990.28282     -9.50       0.00475   0.00203
  8    16.120    -990.29840    -19.28       0.00176   0.00051
  9    18.422    -990.30556    -23.77       0.00346   0.00126

Straight line distance between images along the path:
        D( 0- 1) =   4.1441 Ang.
        D( 1- 2) =   3.9459 Ang.
        D( 2- 3) =   3.6645 Ang.
        D( 3- 4) =   0.9308 Ang.
        D( 4- 5) =   0.3319 Ang.
        D( 5- 6) =   0.2252 Ang.
        D( 6- 7) =   0.5248 Ang.
        D( 7- 8) =   2.3528 Ang.
        D( 8- 9) =   2.3025 Ang.

---------------------------------------------------------------
               INFORMATION ABOUT SADDLE POINT     
---------------------------------------------------------------

Climbing image                            ....  5 
Energy                                    ....  -990.25785663 Eh
Max. abs. force                           ....  1.8751e-03 Eh/Bohr

-----------------------------------------
  SADDLE POINT (ANGSTROEM)
-----------------------------------------
C      0.660642    -0.091647    -0.471164 
N      1.716584    -0.906857    -0.416703 
C      2.378331    -1.043434     0.732558 
C      2.090188    -0.340471     1.896731 
C      0.948910     0.442946     1.888498 
C      0.226010     0.567513     0.718342 
N     -1.027078     1.264361     0.767252 
O     -1.446715     1.803681    -0.241743 
O     -1.645293     1.268134     1.826274 
F      0.582726     0.580288    -1.662999 
H      3.222223    -1.729380     0.713353 
H      2.733054    -0.401888     2.765597 
H      0.621529     0.983143     2.768589 
C     -2.270024    -0.407039    -2.346988 
H     -2.322866     0.643592    -2.055696 
H     -3.296097    -0.778425    -2.428693 
H     -1.820564    -0.459395    -3.342668 
S     -1.351558    -1.395124    -1.110540 

-----------------------------------------
  FORCES (Eh/Bohr)
-----------------------------------------
C      0.000172     0.000757    -0.000691 
N     -0.000162     0.001622    -0.000122 
C     -0.000058     0.000065    -0.000919 
C     -0.000190    -0.001327    -0.000523 
C     -0.000424    -0.000597    -0.000461 
C      0.000185     0.000518    -0.000816 
N      0.000131     0.001439    -0.000102 
O      0.000251     0.000559    -0.000169 
O      0.000551     0.001875     0.000622 
F     -0.001053     0.000520     0.000397 
H     -0.000476     0.000605    -0.000960 
H     -0.001103    -0.001862     0.000163 
H     -0.000599    -0.000433     0.001053 
C      0.000688    -0.000917     0.000691 
H      0.000457    -0.000675     0.000328 
H      0.000509    -0.000864     0.000050 
H      0.001156    -0.000995     0.000660 
S      0.000087    -0.000323     0.001045 

-----------------------------------------
  UNIT TANGENT
-----------------------------------------
C     -0.443518    -0.307737    -0.092036 
N     -0.222745    -0.229781    -0.004425 
C     -0.107013    -0.018019    -0.074442 
C     -0.038690     0.010954    -0.035068 
C     -0.022730     0.004066    -0.035944 
C     -0.108967    -0.045720    -0.006815 
N     -0.010759    -0.016205     0.048257 
O     -0.073304    -0.044245     0.031583 
O     -0.017363     0.085415     0.069742 
F      0.142201     0.136313    -0.029221 
H     -0.039603     0.042725    -0.066750 
H      0.007827     0.026807    -0.062523 
H      0.021086     0.047940    -0.041349 
C      0.157829     0.046852     0.045464 
H      0.012452     0.045615    -0.012455 
H      0.190803    -0.125571     0.177695 
H      0.056002     0.008931     0.008005 
S      0.496493     0.331660     0.080280 
 => Unit tangent is an approximation to the TS mode at the saddle point

Next a TS optimization is performed on the CI from the NEB run.

         *************************************************************
         *                       TS OPTIMIZATION                     *
         *************************************************************


Following output files will be written:
Converged TS will be written to          ....  TS_search_opt_without_h_NEB-TS_converged.xyz
                                         ....  TS_search_opt_without_h.xyz
Current trajectory will be written to    ....  TS_search_opt_without_h_trj.xyz
Initial Hessian will be stored in        ....  TS_search_opt_without_h.appr.hess
Geometry optimization settings:
Update method            Update   .... Bofill
Choice of coordinates    CoordSys .... Z-matrix Internals
Initial Hessian          InHess   .... Read

Convergence Tolerances:
Energy Change            TolE     ....  5.0000e-06 Eh
Max. Gradient            TolMAXG  ....  3.0000e-04 Eh/bohr
RMS Gradient             TolRMSG  ....  1.0000e-04 Eh/bohr
Max. Displacement        TolMAXD  ....  4.0000e-03 bohr
RMS Displacement         TolRMSD  ....  2.0000e-03 bohr
Strict Convergence                ....  False
------------------------------------------------------------------------------
                        ORCA OPTIMIZATION COORDINATE SETUP
------------------------------------------------------------------------------

The optimization will be done in new redundant internal coordinates
Making redundant internal coordinates   ...  (new redundants) done
Following TS mode number                ...     0
TS-active-atoms for coordinate setup... 0 1 17 
Evaluating the initial hessian          ... (Reading Exact Hessian)...  
InHessName: TS_search_opt_without_h.appr.hess	The file <TS_search_opt_without_h.appr.hess> is opened as a .hess file
done
done
Diagonalizing the Hessian               .... done
Dimension of the hessian                .... 111
Lowest eigenvalues of the non projected Hessian:
 -0.011734213 -0.000000000 -0.000000000 -0.000000000 -0.000000000
done
Evaluating the coordinates              ...  done
Calculating the B-matrix                .... done
Calculating the G-matrix                .... done
Diagonalizing the G-matrix              .... done
The first mode is                       ....   63
The number of degrees of freedom        ....   48

    -----------------------------------------------------------------
                    Redundant Internal Coordinates


    -----------------------------------------------------------------
         Definition                    Initial Value    d2E/dq (diagonal element)
    -----------------------------------------------------------------
      1. B(N   1,C   0)                  1.3351         0.145581   
      2. B(C   2,C   0)                  2.3033         0.097294   
      3. B(C   2,N   1)                  1.3332         0.211075   
      4. B(C   3,N   1)                  2.4109         0.095086   
      5. B(C   3,C   2)                  1.3901         0.399082   
      6. B(C   3,C   0)                  2.7771         0.070384   
      7. B(C   4,N   1)                  2.7794         0.065278   
      8. B(C   4,C   0)                  2.4366         0.088689   
      9. B(C   4,C   3)                  1.3843         0.490913   
     10. B(C   5,C   4)                  1.3811         0.374979   
     11. B(C   5,N   1)                  2.3841         0.093866   
     12. B(C   5,C   0)                  1.4277         0.158086   
     13. B(N   6,C   0)                  2.4942         0.088211   
     14. B(N   6,C   5)                  1.4346         0.272917   
     15. B(O   7,C   0)                  2.8436         0.060815   
     16. B(O   7,N   6)                  1.2186         0.782540   
     17. B(O   8,N   6)                  1.2263         0.912444   
     18. B(F   9,C   0)                  1.3704         0.245863   
     19. B(F   9,N   1)                  2.2473         0.092713   
     20. B(H  10,N   1)                  2.0544         0.085480   
     21. B(H  10,C   2)                  1.0877         0.259240   
     22. B(H  11,C   3)                  1.0826         0.370513   
     23. B(H  12,C   4)                  1.0833         0.369151   
     24. B(H  14,C  13)                  1.0915         0.250879   
     25. B(H  14,F   9)                  2.9327         0.022256   
     26. B(H  14,O   7)                  2.3246         0.018462   
     27. B(H  15,C  13)                  1.0943         0.291682   
     28. B(H  16,C  13)                  1.0937         0.287690   
     29. B(S  17,F   9)                  2.8194         0.041228   
     30. B(S  17,H  16)                  2.4653         0.063685   
     31. B(S  17,H  14)                  2.4481         0.065391   
     32. B(S  17,C   0)                  2.4813         0.000306   
     33. B(S  17,O   7)                  3.3161         0.011465   
     34. B(S  17,N   6)                  3.2717         0.019655   
     35. B(S  17,C  13)                  1.8299         0.134697   
     36. B(S  17,H  15)                  2.4288         0.074061   
     37. B(S  17,C   5)                  3.1121         0.046506   
     38. B(S  17,N   1)                  3.1833         0.052403   
     39. A(F   9,C   0,S  17)           89.2761         0.008795   
     40. A(N   1,C   0,S  17)          109.3375         0.013438   
     41. A(C   5,C   0,F   9)          118.7448         0.034576   
     42. A(C   5,C   0,S  17)          102.1429         0.008681   
     43. A(N   1,C   0,F   9)          112.3228         0.024455   
     44. A(N   1,C   0,C   5)          119.2546         0.031430   
     45. A(C   0,N   1,C   2)          119.3598         0.071218   
     46. A(C   3,C   2,H  10)          119.6376         0.163582   
     47. A(N   1,C   2,H  10)          115.7535         0.126976   
     48. A(N   1,C   2,C   3)          124.5575         0.089258   
     49. A(C   2,C   3,C   4)          116.8773         0.045601   
     50. A(C   2,C   3,H  11)          121.3560         0.189190   
     51. A(C   4,C   3,H  11)          121.7661         0.189224   
     52. A(C   3,C   4,C   5)          119.1842         0.045828   
     53. A(C   5,C   4,H  12)          119.0243         0.189512   
     54. A(C   3,C   4,H  12)          121.7706         0.189689   
     55. A(C   0,C   5,N   6)          121.2359         0.065205   
     56. A(C   0,C   5,C   4)          120.3268         0.067761   
     57. A(C   4,C   5,N   6)          118.1717         0.107011   
     58. A(O   7,N   6,O   8)          122.6899         0.257995   
     59. A(C   5,N   6,O   8)          118.1174         0.249754   
     60. A(C   5,N   6,O   7)          119.1773         0.094311   
     61. A(C   0,F   9,S  17)           61.6439         0.003671   
     62. A(H  16,C  13,S  17)          112.5208         0.094754   
     63. A(H  15,C  13,S  17)          109.7444         0.092176   
     64. A(H  14,C  13,S  17)          111.3277         0.085095   
     65. A(H  15,C  13,H  16)          107.5252         0.097693   
     66. A(H  14,C  13,H  16)          107.9942         0.096545   
     67. A(H  14,C  13,H  15)          107.5299         0.092812   
     68. A(F   9,S  17,C  13)           80.4228         0.018663   
     69. A(C   0,S  17,C  13)          107.3063         0.024717   
     70. A(C   0,S  17,F   9)           29.0800         0.009339   
     71. D(C   2,N   1,C   0,C   5)     -2.9054         0.012953   
     72. D(C   2,N   1,C   0,F   9)    142.7698         0.012185   
     73. D(C   2,N   1,C   0,S  17)   -119.7829         0.014684   
     74. D(C   3,C   2,N   1,C   0)     -3.2212         0.012307   
     75. D(H  10,C   2,N   1,C   0)    179.4057         0.013497   
     76. D(C   4,C   3,C   2,H  10)   -175.4975         0.013228   
     77. D(C   4,C   3,C   2,N   1)      7.2248         0.011938   
     78. D(H  11,C   3,C   2,H  10)      4.7681         0.014442   
     79. D(H  11,C   3,C   2,N   1)   -172.5097         0.011737   
     80. D(H  12,C   4,C   3,H  11)     -3.4895         0.012890   
     81. D(H  12,C   4,C   3,C   2)    176.7773         0.010597   
     82. D(C   5,C   4,C   3,H  11)    174.8287         0.010373   
     83. D(C   5,C   4,C   3,C   2)     -4.9045         0.009350   
     84. D(C   4,C   5,C   0,F   9)   -138.6400         0.006999   
     85. D(C   4,C   5,C   0,N   1)      4.8516         0.012941   
     86. D(N   6,C   5,C   4,C   3)    173.4248         0.009066   
     87. D(C   0,C   5,C   4,H  12)    177.6358         0.010597   
     88. D(C   0,C   5,C   4,C   3)     -0.7290         0.009305   
     89. D(N   6,C   5,C   0,S  17)    -48.5400         0.011073   
     90. D(N   6,C   5,C   0,F   9)     47.3879         0.009673   
     91. D(N   6,C   5,C   0,N   1)   -169.1204         0.014252   
     92. D(N   6,C   5,C   4,H  12)     -8.2103         0.010850   
     93. D(C   4,C   5,C   0,S  17)    125.4320         0.009569   
     94. D(O   8,N   6,C   5,C   4)    -27.4352         0.011517   
     95. D(O   8,N   6,C   5,C   0)    146.6630         0.012427   
     96. D(O   7,N   6,C   5,C   4)    153.9571         0.013800   
     97. D(O   7,N   6,C   5,C   0)    -31.9447         0.014570   
     98. D(S  17,F   9,C   0,C   5)   -103.4740         0.011201   
     99. D(S  17,F   9,C   0,N   1)    110.6586         0.016695   
    100. D(C  13,S  17,C   0,C   5)     96.0445         0.025777   
    101. D(C  13,S  17,C   0,N   1)   -136.7073         0.025726   
    102. D(F   9,S  17,C  13,H  16)     66.5092         0.027146   
    103. D(F   9,S  17,C  13,H  15)   -173.8098         0.027865   
    104. D(C   0,S  17,C  13,H  16)     77.7269         0.025310   
    105. D(C   0,S  17,C  13,H  15)   -162.5921         0.026506   
    106. D(C   0,S  17,C  13,H  14)    -43.6659         0.025391   
    107. D(C  13,S  17,F   9,C   0)    157.5339         0.018574   
    108. D(F   9,S  17,C  13,H  14)    -54.8835         0.027066   
    109. D(F   9,S  17,C   0,C   5)    119.2904         0.036363   
    110. D(F   9,S  17,C   0,N   1)   -113.4614         0.032601   
    111. D(C  13,S  17,C   0,F   9)    -23.2459         0.017246   
    -----------------------------------------------------------------

Number of atoms                         .... 18
Number of degrees of freedom            .... 111

         *************************************************************
         *                GEOMETRY OPTIMIZATION CYCLE   1            *
         *************************************************************


           ************************************************************
           *        Program running with 24 parallel MPI-processes    *
           *              working on a common directory               *
           ************************************************************
------------------------------------------------------------------------------
                           ORCA GTO INTEGRAL CALCULATION
                           -- RI-GTO INTEGRALS CHOSEN --
------------------------------------------------------------------------------
------------------------------------------------------------------------------
                   ___                                                        
                  /   \      - P O W E R E D   B Y -                         
                 /     \                                                     
                 |  |  |   _    _      __       _____    __    __             
                 |  |  |  | |  | |    /  \     |  _  \  |  |  /  |          
                  \  \/   | |  | |   /    \    | | | |  |  | /  /          
                 / \  \   | |__| |  /  /\  \   | |_| |  |  |/  /          
                |  |  |   |  __  | /  /__\  \  |    /   |      \           
                |  |  |   | |  | | |   __   |  |    \   |  |\   \          
                \     /   | |  | | |  |  |  |  | |\  \  |  | \   \       
                 \___/    |_|  |_| |__|  |__|  |_| \__\ |__|  \__/        
                                                                              
                      - O R C A' S   B I G   F R I E N D -                    
                                      &                                       
                       - I N T E G R A L  F E E D E R -                       
                                                                              
 v1 FN, 2020, v2 2021                                                         
------------------------------------------------------------------------------


Reading SHARK input file TS_search_opt_without_h.SHARKINP.tmp ... ok
----------------------
SHARK INTEGRAL PACKAGE
----------------------

Number of atoms                             ...     18
Number of basis functions                   ...    314
Number of shells                            ...    154
Maximum angular momentum                    ...      2
Integral batch strategy                     ... SHARK/LIBINT Hybrid
RI-J (if used) integral strategy            ... SPLIT-RIJ (Revised 2003 algorithm where possible)
Printlevel                                  ...      1
Contraction scheme used                     ... SEGMENTED contraction
Coulomb Range Separation                    ... NOT USED
Exchange Range Separation                   ... Long Range
   Mu parameter                             ...  0.300000
   Scaling (regular/separated)              ...  0.157706  0.842294
Finite Nucleus Model                        ... NOT USED
Auxiliary Coulomb fitting basis             ... AVAILABLE
   # of basis functions in Aux-J            ...    656
   # of shells in Aux-J                     ...    212
   Maximum angular momentum in Aux-J        ...      4
Auxiliary J/K fitting basis                 ... NOT available
Auxiliary Correlation fitting basis         ... NOT available
Auxiliary 'external' fitting basis          ... NOT available
Integral threshold                          ...     2.500000e-11
Primitive cut-off                           ...     2.500000e-12
Primitive pair pre-selection threshold      ...     2.500000e-12

Calculating pre-screening integrals         ... done (  0.1 sec) Dimension = 154
Organizing shell pair data                  ... done (  0.1 sec)
Shell pair information
Total number of shell pairs                 ...     11935
Shell pairs after pre-screening             ...     10362
Total number of primitive shell pairs       ...     38500
Primitive shell pairs kept                  ...     23688
          la=0 lb=0:   3162 shell pairs
          la=1 lb=0:   4227 shell pairs
          la=1 lb=1:   1440 shell pairs
          la=2 lb=0:    860 shell pairs
          la=2 lb=1:    601 shell pairs
          la=2 lb=2:     72 shell pairs

Calculating one electron integrals          ... done (  0.0 sec)
Calculating RI/J V-Matrix + Cholesky decomp.... done (  0.1 sec)
Calculating Nuclear repulsion               ... done (  0.0 sec) ENN=    819.099166413580 Eh

SHARK setup successfully completed in   0.5 seconds

Maximum memory used throughout the entire GTOINT-calculation: 17.1 MB


           ************************************************************
           *        Program running with 24 parallel MPI-processes    *
           *              working on a common directory               *
           ************************************************************
-------------------------------------------------------------------------------
                                 ORCA SCF
-------------------------------------------------------------------------------

------------
SCF SETTINGS
------------
Hamiltonian:
 Density Functional     Method          .... DFT(GTOs)
 Exchange Functional    Exchange        .... WB97X
 Correlation Functional Correlation     .... WB97X
 Gradients option       PostSCFGGA      .... off
 Hybrid DFT is turned on
   Fraction HF Exchange ScalHFX         ....  0.157706
   Scaling of DF-GGA-X  ScalDFX         ....  0.000000
   Scaling of DF-GGA-C  ScalDFC         ....  1.000000
   Scaling of DF-LDA-C  ScalLDAC        ....  1.000000
   Perturbative correction              ....  0.000000
   Density functional embedding theory  .... OFF
 Long-range corrected/Screened/Range-Separated Hybrid DFT is turned on
   Amount of maximum screened exact exchange              ....  0.842294
   Range separation parameter mu (erf(mu*r12)/r12)        ....  0.300000
 RI-approximation to the Coulomb term is turned on
   Number of AuxJ basis functions       .... 656
   RIJ-COSX (HFX calculated with COS-X)).... on


General Settings:
 Integral files         IntName         .... TS_search_opt_without_h
 Hartree-Fock type      HFTyp           .... RHF
 Total Charge           Charge          ....   -1
 Multiplicity           Mult            ....    1
 Number of Electrons    NEL             ....   98
 Basis Dimension        Dim             ....  314
 Nuclear Repulsion      ENuc            ....    819.0991664136 Eh

Convergence Acceleration:
 DIIS                   CNVDIIS         .... on
   Start iteration      DIISMaxIt       ....    12
   Startup error        DIISStart       ....  0.200000
   # of expansion vecs  DIISMaxEq       ....     5
   Bias factor          DIISBfac        ....   1.050
   Max. coefficient     DIISMaxC        ....  10.000
 Trust-Rad. Augm. Hess. CNVTRAH         .... auto
   Auto Start mean grad. ratio tolernc. ....  1.125000
   Auto Start start iteration           ....     1
   Auto Start num. interpolation iter.  ....    10
   Max. Number of Micro iterations      ....    16
   Max. Number of Macro iterations      .... Maxiter - #DIIS iter
   Number of Davidson start vectors     ....     2
   Converg. threshold I  (grad. norm)   ....   1.000e-05
   Converg. threshold II (energy diff.) ....   1.000e-08
   Grad. Scal. Fac. for Micro threshold ....   0.100
   Minimum threshold for Micro iter.    ....   0.010
   NR start threshold (gradient norm)   ....   0.001
   Initial trust radius                 ....   0.400
   Minimum AH scaling param. (alpha)    ....   1.000
   Maximum AH scaling param. (alpha)    .... 1000.000
   Orbital update algorithm             .... Taylor
   White noise on init. David. guess    .... on
   Maximum white noise                  ....   0.010
   Quad. conv. algorithm                .... NR
 SOSCF                  CNVSOSCF        .... on
   Start iteration      SOSCFMaxIt      ....   150
   Startup grad/error   SOSCFStart      ....  0.003300
 Level Shifting         CNVShift        .... on
   Level shift para.    LevelShift      ....    0.2500
   Turn off err/grad.   ShiftErr        ....    0.0010
 Zerner damping         CNVZerner       .... off
 Static damping         CNVDamp         .... on
   Fraction old density DampFac         ....    0.7000
   Max. Damping (<1)    DampMax         ....    0.9800
   Min. Damping (>=0)   DampMin         ....    0.0000
   Turn off err/grad.   DampErr         ....    0.1000
 Fernandez-Rico         CNVRico         .... off

SCF Procedure:
 Maximum # iterations   MaxIter         ....   125
 SCF integral mode      SCFMode         .... Direct
   Integral package                     .... SHARK and LIBINT hybrid scheme
 Reset frequency        DirectResetFreq ....    20
 Integral Threshold     Thresh          ....  2.500e-11 Eh
 Primitive CutOff       TCut            ....  2.500e-12 Eh

Convergence Tolerance:
 Convergence Check Mode ConvCheckMode   .... Total+1el-Energy
 Convergence forced     ConvForced      .... 0
 Energy Change          TolE            ....  1.000e-08 Eh
 1-El. energy change                    ....  1.000e-05 Eh
 Orbital Gradient       TolG            ....  1.000e-05
 Orbital Rotation angle TolX            ....  1.000e-05
 DIIS Error             TolErr          ....  5.000e-07


Diagonalization of the overlap matrix:
Smallest eigenvalue                        ... 2.878e-06
Time for diagonalization                   ...    0.020 sec
Threshold for overlap eigenvalues          ... 1.000e-08
Number of eigenvalues below threshold      ... 0
Time for construction of square roots      ...    0.030 sec
Total time needed                          ...    0.051 sec

---------------------
INITIAL GUESS: MOREAD
---------------------
Guess MOs are being read from file: TS_search_opt_without_h.gbw
Input Geometry matches current geometry (good)
Input basis set matches current basis set (good)
MOs were renormalized
MOs were reorthogonalized (Cholesky)
                      ------------------
                      INITIAL GUESS DONE (   0.0 sec)
                      ------------------
-------------------
DFT GRID GENERATION
-------------------

General Integration Accuracy     IntAcc      ... 4.388
Radial Grid Type                 RadialGrid  ... OptM3 with GC (2021)
Angular Grid (max. ang.)         AngularGrid ... 4 (Lebedev-302)
Angular grid pruning method      GridPruning ... 4 (adaptive)
Weight generation scheme         WeightScheme... Becke
Basis function cutoff            BFCut       ... 1.0000e-11
Integration weight cutoff        WCut        ... 1.0000e-14
Angular grids for H and He will be reduced by one unit
Partially contracted basis set               ... off
Rotationally invariant grid construction     ... off

Total number of grid points                  ...    97628
Total number of batches                      ...     1535
Average number of points per batch           ...       63
Average number of grid points per atom       ...     5424
Time for grid setup =    0.729 sec

--------------------
COSX GRID GENERATION
--------------------

GRIDX 1
-------
General Integration Accuracy     IntAcc      ... 3.816
Radial Grid Type                 RadialGrid  ... OptM3 with GC (2021)
Angular Grid (max. ang.)         AngularGrid ... 1 (Lebedev-50)
Angular grid pruning method      GridPruning ... 4 (adaptive)
Weight generation scheme         WeightScheme... Becke
Basis function cutoff            BFCut       ... 1.0000e-11
Integration weight cutoff        WCut        ... 1.0000e-14
Angular grids for H and He will be reduced by one unit
Partially contracted basis set               ... on
Rotationally invariant grid construction     ... off

Total number of grid points                  ...    12198
Total number of batches                      ...      199
Average number of points per batch           ...       61
Average number of grid points per atom       ...      678
UseSFitting                                  ... on

GRIDX 2
-------
General Integration Accuracy     IntAcc      ... 4.020
Radial Grid Type                 RadialGrid  ... OptM3 with GC (2021)
Angular Grid (max. ang.)         AngularGrid ... 2 (Lebedev-110)
Angular grid pruning method      GridPruning ... 4 (adaptive)
Weight generation scheme         WeightScheme... Becke
Basis function cutoff            BFCut       ... 1.0000e-11
Integration weight cutoff        WCut        ... 1.0000e-14
Angular grids for H and He will be reduced by one unit
Partially contracted basis set               ... on
Rotationally invariant grid construction     ... off

Total number of grid points                  ...    30506
Total number of batches                      ...      486
Average number of points per batch           ...       62
Average number of grid points per atom       ...     1695
UseSFitting                                  ... on

GRIDX 3
-------
General Integration Accuracy     IntAcc      ... 4.338
Radial Grid Type                 RadialGrid  ... OptM3 with GC (2021)
Angular Grid (max. ang.)         AngularGrid ... 3 (Lebedev-194)
Angular grid pruning method      GridPruning ... 4 (adaptive)
Weight generation scheme         WeightScheme... Becke
Basis function cutoff            BFCut       ... 1.0000e-11
Integration weight cutoff        WCut        ... 1.0000e-14
Angular grids for H and He will be reduced by one unit
Partially contracted basis set               ... on
Rotationally invariant grid construction     ... off

Total number of grid points                  ...    67758
Total number of batches                      ...     1068
Average number of points per batch           ...       63
Average number of grid points per atom       ...     3764
UseSFitting                                  ... on

Time for X-Grid setup             =    0.982 sec


--------------------
CPCM SOLVATION MODEL
--------------------
CPCM parameters:
  Epsilon                                         ...      78.3550
  Refrac                                          ...       1.3328
  Rsolv                                           ...       1.3000
  Surface type                                    ... GAUSSIAN VDW
  Epsilon function type                           ...         CPCM
Solvent:                                     ... WATER
SMD-CDS solvent descriptors:
  Soln                                       ...    1.3328
  Soln25                                     ...    1.3323
  Sola                                       ...    0.0000
  Solb                                       ...    0.0000
  Solg                                       ...    0.0000
  Solc                                       ...    0.0000
  Solh                                       ...    0.0000
Radii:
 Radius for C  used is    3.4960 Bohr (=   1.8500 Ang.)
 Radius for N  used is    3.5716 Bohr (=   1.8900 Ang.)
 Radius for O  used is    2.8724 Bohr (=   1.5200 Ang.)
 Radius for F  used is    3.2692 Bohr (=   1.7300 Ang.)
 Radius for H  used is    2.2677 Bohr (=   1.2000 Ang.)
 Radius for S  used is    4.7054 Bohr (=   2.4900 Ang.)
Calculating surface                               ...        done! (  0.0s)
GEPOL surface points                              ...         1060
GEPOL Volume                                      ...    1270.0891
GEPOL Surface-area                                ...     704.0331
Calculating surface distance matrix               ...        done! (  0.0s)
Performing Cholesky decomposition & store         ...        done! (  0.1s)
Overall time for CPCM initialization              ...                 0.1s
--------------
SCF ITERATIONS
--------------
ITER       Energy         Delta-E        Max-DP      RMS-DP      [F,P]     Damp
               ***  Starting incremental Fock matrix formation  ***
                      *** Initiating the SOSCF procedure ***
                      *** Re-Reading the Fockian *** 
                      *** Removing any level shift *** 
ITER      Energy       Delta-E        Grad      Rot      Max-DP    RMS-DP
  0   -990.26232745 -990.2623274462  0.000002  0.000002  0.027092  0.000131
               *** Restarting incremental Fock matrix formation ***
                  ***Gradient check signals convergence***
              ***Rediagonalizing the Fockian in SOSCF/NRSCF***

               *****************************************************
               *                     SUCCESS                       *
               *           SCF CONVERGED AFTER   1 CYCLES          *
               *****************************************************

Old exchange energy                            =    -28.484648484 Eh
New exchange energy                            =    -28.484641930 Eh
Exchange energy change after final integration =      0.000006554 Eh
Total energy after final integration           =   -990.262320893 Eh
Final COS-X integration done in                =     5.778 sec

SMD CDS free energy correction energy :                 5.03877     Kcal/mol
Total Energy after SMD CDS correction =              -990.254291110 Eh

----------------
TOTAL SCF ENERGY
----------------

Total Energy       :         -990.25429111 Eh          -26946.18918 eV

Components:
Nuclear Repulsion  :          819.09916641 Eh           22288.82146 eV
Electronic Energy  :        -1809.35345752 Eh          -49235.01064 eV
One Electron Energy:        -3002.77055458 Eh          -81709.54082 eV
Two Electron Energy:         1193.41709706 Eh           32474.53018 eV
Max COSX asymmetry :            0.00000323 Eh               0.00009 eV
CPCM Dielectric    :           -0.10194027 Eh              -2.77394 eV
SMD CDS (Gcds)     :            0.00802978 Eh               0.21850 eV

Virial components:
Potential Energy   :        -1978.35832582 Eh          -53833.86691 eV
Kinetic Energy     :          988.10403471 Eh           26887.67773 eV
Virial Ratio       :            2.00217614


DFT components:
N(Alpha)           :       49.000037458155 electrons
N(Beta)            :       49.000037458155 electrons
N(Total)           :       98.000074916310 electrons
E(XC)              :      -73.547140387558 Eh       
DFET-embed. en.    :        0.000000000000 Eh       
CPCM Solvation Model Properties:
Surface-charge          :            0.95239804
Charge-correction       :           -0.00581967 Eh              -0.15836 eV
Free-energy (cav+disp)  :            0.00802978 Eh               0.21850 eV

---------------
SCF CONVERGENCE
---------------

  Last Energy change         ...   -5.1955e-10  Tolerance :   1.0000e-08
  Last MAX-Density change    ...    1.7764e-15  Tolerance :   1.0000e-07
  Last RMS-Density change    ...    4.1006e-17  Tolerance :   5.0000e-09
  Last Orbital Gradient      ...    7.9661e-07  Tolerance :   1.0000e-05
  Last Orbital Rotation      ...    1.4622e-06  Tolerance :   1.0000e-05

             **** THE GBW FILE WAS UPDATED (TS_search_opt_without_h.gbw) ****
             **** DENSITY TS_search_opt_without_h.scfp WAS UPDATED ****
             **** ENERGY FILE WAS UPDATED (TS_search_opt_without_h.en.tmp) ****
             **** THE GBW FILE WAS UPDATED (TS_search_opt_without_h.gbw) ****
             **** DENSITY TS_search_opt_without_h.scfp WAS UPDATED ****
----------------
ORBITAL ENERGIES
----------------

  NO   OCC          E(Eh)            E(eV) 
   0   2.0000     -88.750197     -2415.0156 
   1   2.0000     -24.744166      -673.3230 
   2   2.0000     -19.237447      -523.4775 
   3   2.0000     -19.234640      -523.4012 
   4   2.0000     -14.648342      -398.6017 
   5   2.0000     -14.394481      -391.6937 
   6   2.0000     -10.412589      -283.3410 
   7   2.0000     -10.313833      -280.6537 
   8   2.0000     -10.309493      -280.5356 
   9   2.0000     -10.292978      -280.0862 
  10   2.0000     -10.258337      -279.1435 
  11   2.0000     -10.244865      -278.7770 
  12   2.0000      -7.945994      -216.2215 
  13   2.0000      -5.908931      -160.7902 
  14   2.0000      -5.903084      -160.6311 
  15   2.0000      -5.900467      -160.5599 
  16   2.0000      -1.382784       -37.6275 
  17   2.0000      -1.349113       -36.7112 
  18   2.0000      -1.197791       -32.5936 
  19   2.0000      -1.092066       -29.7166 
  20   2.0000      -0.985300       -26.8114 
  21   2.0000      -0.921367       -25.0717 
  22   2.0000      -0.848928       -23.1005 
  23   2.0000      -0.841771       -22.9058 
  24   2.0000      -0.772303       -21.0154 
  25   2.0000      -0.742149       -20.1949 
  26   2.0000      -0.694929       -18.9100 
  27   2.0000      -0.690604       -18.7923 
  28   2.0000      -0.674547       -18.3553 
  29   2.0000      -0.659485       -17.9455 
  30   2.0000      -0.651886       -17.7387 
  31   2.0000      -0.619172       -16.8485 
  32   2.0000      -0.595290       -16.1987 
  33   2.0000      -0.586810       -15.9679 
  34   2.0000      -0.536954       -14.6113 
  35   2.0000      -0.519890       -14.1469 
  36   2.0000      -0.504997       -13.7417 
  37   2.0000      -0.501632       -13.6501 
  38   2.0000      -0.498063       -13.5530 
  39   2.0000      -0.489136       -13.3101 
  40   2.0000      -0.443513       -12.0686 
  41   2.0000      -0.428571       -11.6620 
  42   2.0000      -0.421632       -11.4732 
  43   2.0000      -0.417386       -11.3576 
  44   2.0000      -0.396578       -10.7914 
  45   2.0000      -0.387069       -10.5327 
  46   2.0000      -0.354142        -9.6367 
  47   2.0000      -0.281306        -7.6547 
  48   2.0000      -0.268439        -7.3046 
  49   0.0000      -0.018142        -0.4937 
  50   0.0000       0.048743         1.3264 
  51   0.0000       0.056341         1.5331 
  52   0.0000       0.063658         1.7322 
  53   0.0000       0.067626         1.8402 
  54   0.0000       0.070959         1.9309 
  55   0.0000       0.082625         2.2483 
  56   0.0000       0.088146         2.3986 
  57   0.0000       0.093423         2.5422 
  58   0.0000       0.103984         2.8295 
  59   0.0000       0.112911         3.0725 
  60   0.0000       0.126990         3.4556 
  61   0.0000       0.127312         3.4643 
  62   0.0000       0.132758         3.6125 
  63   0.0000       0.141153         3.8410 
  64   0.0000       0.150826         4.1042 
  65   0.0000       0.159337         4.3358 
  66   0.0000       0.166561         4.5323 
  67   0.0000       0.171655         4.6710 
  68   0.0000       0.173768         4.7285 
  69   0.0000       0.177511         4.8303 
  70   0.0000       0.179559         4.8860 
  71   0.0000       0.186973         5.0878 
  72   0.0000       0.191102         5.2002 
  73   0.0000       0.197663         5.3787 
  74   0.0000       0.202939         5.5223 
  75   0.0000       0.204791         5.5727 
  76   0.0000       0.209855         5.7104 
  77   0.0000       0.215567         5.8659 
  78   0.0000       0.219208         5.9649 
  79   0.0000       0.226597         6.1660 
  80   0.0000       0.227242         6.1836 
  81   0.0000       0.234850         6.3906 
  82   0.0000       0.242878         6.6090 
  83   0.0000       0.250872         6.8266 
  84   0.0000       0.253590         6.9005 
  85   0.0000       0.263493         7.1700 
  86   0.0000       0.269021         7.3204 
  87   0.0000       0.271581         7.3901 
  88   0.0000       0.282423         7.6851 
  89   0.0000       0.288210         7.8426 
  90   0.0000       0.289783         7.8854 
  91   0.0000       0.295936         8.0528 
  92   0.0000       0.308499         8.3947 
  93   0.0000       0.315482         8.5847 
  94   0.0000       0.323822         8.8116 
  95   0.0000       0.326558         8.8861 
  96   0.0000       0.339228         9.2309 
  97   0.0000       0.340954         9.2778 
  98   0.0000       0.345093         9.3905 
  99   0.0000       0.356723         9.7069 
 100   0.0000       0.358995         9.7687 
 101   0.0000       0.369290        10.0489 
 102   0.0000       0.373116        10.1530 
 103   0.0000       0.375575        10.2199 
 104   0.0000       0.387088        10.5332 
 105   0.0000       0.395490        10.7618 
 106   0.0000       0.400427        10.8962 
 107   0.0000       0.412645        11.2286 
 108   0.0000       0.415084        11.2950 
 109   0.0000       0.420545        11.4436 
 110   0.0000       0.431719        11.7477 
 111   0.0000       0.438852        11.9418 
 112   0.0000       0.450546        12.2600 
 113   0.0000       0.455946        12.4069 
 114   0.0000       0.460913        12.5421 
 115   0.0000       0.469587        12.7781 
 116   0.0000       0.476906        12.9773 
 117   0.0000       0.483634        13.1604 
 118   0.0000       0.487334        13.2610 
 119   0.0000       0.493864        13.4387 
 120   0.0000       0.521695        14.1961 
 121   0.0000       0.525213        14.2918 
 122   0.0000       0.537836        14.6353 
 123   0.0000       0.545505        14.8439 
 124   0.0000       0.559438        15.2231 
 125   0.0000       0.592919        16.1342 
 126   0.0000       0.621384        16.9087 
 127   0.0000       0.624497        16.9934 
 128   0.0000       0.640014        17.4157 
 129   0.0000       0.651483        17.7278 
[...]
      7      -0.001689  -0.000127   0.063406   0.000863   0.076772   0.083671
      8      -0.002926   0.001160  -0.138731   0.226571   0.180034  -0.357069
      9      -0.001146  -0.000045   0.080121   0.029525   0.261359   0.127206
     10       0.001020  -0.000119  -0.075038  -0.028296  -0.247785  -0.115656
     11       0.004651   0.000096  -0.077234  -0.109231  -0.235168   0.110821
     12      -0.001871  -0.000784   0.079658  -0.019436  -0.174152  -0.243267
     13       0.001817   0.000595  -0.065077   0.019211   0.175648   0.220682
     14      -0.001334  -0.001065   0.155936  -0.023894   0.112285  -0.192011
     15       0.002664   0.000313  -0.102248   0.053531   0.024784   0.113387
     16      -0.003510   0.000027   0.086196  -0.036533  -0.070797  -0.085602
     17      -0.005520   0.000666  -0.110151   0.096088  -0.283274   0.228847
     18      -0.002417   0.000857  -0.075296  -0.134580   0.098997   0.000510
     19       0.001870  -0.001867   0.040603  -0.039908  -0.055245  -0.018273
     20      -0.000925  -0.003823  -0.079328  -0.567901   0.132476  -0.068094
     21       0.001371  -0.000025   0.067749   0.138315  -0.053629  -0.005836
     22      -0.000543  -0.000062  -0.032331  -0.050975   0.023277   0.006116
     23       0.001513   0.000272   0.083458   0.226979  -0.081911   0.006404
     24      -0.000040  -0.000633   0.006449  -0.032005  -0.016132  -0.001816
     25       0.000069   0.001184  -0.006768   0.087964   0.014293   0.010593
     26       0.000138   0.002630  -0.005690   0.225885   0.001783   0.035299
     27      -0.000450  -0.000337  -0.006965   0.013284   0.003017  -0.006634
     28       0.000225  -0.000112   0.007583  -0.016040   0.003517  -0.001255
     29      -0.001815  -0.000424   0.006160   0.005515  -0.021049  -0.002466
     30       0.004425  -0.000189  -0.023863  -0.084772  -0.153047  -0.017069
     31      -0.003708   0.000347  -0.000691   0.090674   0.136639  -0.011497
     32       0.017178  -0.003916   0.542282  -0.606542  -0.204846   0.520606
     33       0.007646   0.001850  -0.363411  -0.026347  -0.284690   0.072740
     34      -0.007015  -0.001607   0.345715   0.014165   0.265546  -0.064510
     35      -0.003379  -0.001744   0.380619  -0.077176   0.331952   0.220957
     36       0.010799   0.001620  -0.274285  -0.019023   0.048456   0.287341
     37      -0.010680  -0.001453   0.267015   0.018339  -0.019903  -0.278472
     38       0.007362   0.000260  -0.057210  -0.041045   0.305708   0.158115
     39      -0.027109   0.049153   0.000307  -0.002492  -0.000498  -0.000908
     40       0.050367   0.035914   0.001302  -0.000231   0.000253  -0.003686
     41       0.027074  -0.015092  -0.000444   0.001002   0.000726   0.001193
     42       0.126102  -0.593415  -0.004799   0.032480   0.001511   0.001391
     43       0.032969  -0.362498  -0.004049   0.017995   0.001270   0.000188
     44       0.374932   0.194548   0.009884   0.004039  -0.000351  -0.015176
     45       0.450749  -0.276157   0.002713   0.021790   0.003015  -0.011696
     46      -0.188083   0.356029  -0.002361  -0.023485   0.000243   0.018297
     47      -0.454271  -0.047870   0.001841   0.004016  -0.007332  -0.018322
     48      -0.212640   0.205930   0.002706  -0.005646  -0.001681  -0.007003
     49      -0.513284  -0.472926  -0.009864   0.012041  -0.004694   0.012256
     50      -0.289668   0.056733   0.000242  -0.001554  -0.000695  -0.000723
     51      -0.001094   0.002414  -0.000144   0.000699   0.001438  -0.003777
     52       0.002206   0.001795   0.001176  -0.003005  -0.000243  -0.003011
     53       0.001464  -0.000714   0.000618  -0.000721  -0.000749  -0.000504
                 48         49         50         51         52         53    
      0       0.000567  -0.000280   0.000057   0.001243   0.000004  -0.000055
      1       0.000556  -0.000275   0.000302  -0.000542  -0.000313   0.000158
      2      -0.000106   0.000182  -0.000304   0.000950  -0.000196  -0.000378
      3      -0.000249   0.000160  -0.000070   0.000669   0.000318  -0.000215
      4       0.000039  -0.000062  -0.000013  -0.000597  -0.000260   0.000148
      5      -0.000102   0.000053  -0.000042   0.000520   0.000248  -0.000318
      6      -0.000045  -0.000014   0.000012  -0.067280  -0.008207   0.008512
      7      -0.000004   0.000045  -0.000051   0.052906   0.006543  -0.006769
      8       0.000220  -0.000158   0.000024   0.012604   0.003446  -0.004747
      9       0.000051  -0.000061   0.000015   0.007560  -0.021900   0.033617
     10       0.000001   0.000049   0.000009  -0.006479   0.018354  -0.028824
     11      -0.000072   0.000057   0.000014   0.007973  -0.044106   0.055292
     12      -0.000001   0.000054  -0.000009   0.000544  -0.017831  -0.017992
     13      -0.000012  -0.000040   0.000002  -0.000638   0.021506   0.020791
     14       0.000011   0.000008   0.000019  -0.001420   0.062490   0.048872
     15       0.000041  -0.000093  -0.000063  -0.000063  -0.001069  -0.001211
     16      -0.000249   0.000246  -0.000049  -0.000044   0.000894   0.001022
     17      -0.000076   0.000029   0.000029  -0.000491  -0.002250  -0.002386
     18      -0.000234   0.000264   0.000005   0.000162  -0.000163  -0.000150
     19       0.000189  -0.000197  -0.000019  -0.000118   0.000299   0.000281
     20       0.000080  -0.000026  -0.000046  -0.000015   0.001032   0.000784
     21       0.000049  -0.000084   0.000001  -0.000063   0.000119   0.000134
     22      -0.000059   0.000014  -0.000003   0.000040  -0.000093  -0.000120
     23       0.000057  -0.000147  -0.000021  -0.000053  -0.000047  -0.000032
     24       0.000057  -0.000062  -0.000009  -0.000028  -0.000262  -0.000148
     25      -0.000053   0.000052   0.000005   0.000047   0.000184   0.000082
     26      -0.000130   0.000115   0.000007   0.000096  -0.000576  -0.000411
     27       0.000066  -0.000041   0.000134  -0.000088   0.000014  -0.000003
     28      -0.000138   0.000078  -0.000055   0.000073   0.000035  -0.000026
     29       0.000178  -0.000114   0.000228  -0.000142  -0.000005   0.000045
     30       0.000959   0.000033  -0.000222   0.766367   0.087304  -0.085860
     31      -0.000723  -0.000022   0.000134  -0.601310  -0.068594   0.067322
     32      -0.000218  -0.000002   0.000058  -0.132277  -0.017615   0.018573
     33      -0.000025   0.000129  -0.000063  -0.075701   0.273661  -0.356495
     34       0.000103  -0.000127   0.000097   0.064040  -0.229981   0.299691
     35      -0.000256   0.000214  -0.000138  -0.125171   0.484291  -0.623094
     36      -0.000090  -0.000054   0.000039  -0.006290   0.222069   0.175661
     37       0.000096   0.000071  -0.000111   0.007237  -0.264862  -0.209089
     38       0.000051   0.000142  -0.000213   0.019030  -0.705690  -0.547460
     39      -0.022047  -0.016793   0.082728   0.000033  -0.000000  -0.000034
     40       0.016905  -0.087760  -0.002008  -0.000050   0.000015  -0.000026
     41      -0.037459  -0.028954  -0.044547   0.000038   0.000006   0.000009
     42       0.275974  -0.322274  -0.188065  -0.000366   0.000023  -0.000024
     43      -0.514466   0.571878   0.381562   0.000762  -0.000059   0.000045
     44      -0.125981   0.129737   0.078423   0.000109   0.000004   0.000019
     45       0.380781   0.494726  -0.217022  -0.000619   0.000040   0.000247
     46       0.388859   0.482949  -0.235004  -0.000451  -0.000014   0.000272
     47       0.192024   0.251118  -0.129459  -0.000435   0.000082   0.000042
     48      -0.395300   0.027950  -0.576719   0.000327   0.000019   0.000134
     49      -0.076942  -0.012853  -0.125293   0.000118  -0.000044   0.000067
     50       0.381907  -0.037954   0.580233  -0.000341  -0.000003  -0.000211
     51      -0.000097   0.000047  -0.000168  -0.000047   0.000021  -0.000014
     52      -0.000019   0.000145   0.000045  -0.000039   0.000027  -0.000017
     53      -0.000088   0.000083   0.000052  -0.000004   0.000002   0.000002


-----------
IR SPECTRUM
-----------

 Mode   freq       eps      Int      T**2         TX        TY        TZ
       cm**-1   L/(mol*cm) km/mol    a.u.
----------------------------------------------------------------------------
  8:     59.71   0.000992    5.01  0.005185  ( 0.065930  0.028943 -0.000400)
  9:     71.53   0.001595    8.06  0.006959  (-0.035226  0.050288  0.056472)
 10:     80.39   0.002243   11.34  0.008707  (-0.086800 -0.034139 -0.002724)
 11:    118.44   0.000825    4.17  0.002173  (-0.002079  0.031042  0.034713)
 12:    132.36   0.001530    7.73  0.003606  (-0.035355 -0.048493 -0.002167)
 13:    185.05   0.002043   10.32  0.003445  (-0.040053 -0.042747 -0.003718)
 14:    246.47   0.000690    3.49  0.000874  ( 0.005706 -0.029008  0.000460)
 15:    289.55   0.002912   14.72  0.003139  (-0.032235 -0.035052 -0.029514)
 16:    388.56   0.001303    6.59  0.001047  ( 0.013888  0.021956  0.019280)
 17:    403.73   0.027885  140.92  0.021554  ( 0.057686  0.117690  0.066144)
 18:    445.13   0.042460  214.58  0.029767  ( 0.103780  0.117171  0.072580)
 19:    465.19   0.004019   20.31  0.002696  ( 0.003155 -0.032241 -0.040579)
 20:    567.56   0.003105   15.69  0.001707  ( 0.005229 -0.033294  0.023902)
 21:    584.96   0.006804   34.38  0.003630  (-0.057602 -0.011246 -0.013609)
 22:    672.40   0.080124  404.91  0.037186  ( 0.121107  0.129355  0.076067)
 23:    685.30   0.051714  261.34  0.023549  (-0.066837 -0.136317 -0.022346)
 24:    748.65   0.000774    3.91  0.000323  (-0.005334  0.009964 -0.013959)
 25:    759.19   0.028165  142.34  0.011577  ( 0.069446  0.081996  0.005588)
 26:    817.36   0.006131   30.98  0.002341  (-0.023151 -0.040710  0.012141)
 27:    830.94   0.007367   37.23  0.002767  ( 0.034931  0.039254  0.002392)
 28:    900.98   0.018664   94.32  0.006464  (-0.053926  0.059314 -0.006188)
 29:    965.29   0.005322   26.90  0.001721  ( 0.008582  0.040129  0.006053)
 30:    978.84   0.006222   31.44  0.001984  (-0.021762  0.031278  0.023058)
 31:   1012.07   0.000706    3.57  0.000218  (-0.014590  0.000557  0.002113)
 32:   1018.81   0.001031    5.21  0.000316  (-0.017574 -0.002559 -0.000536)
 33:   1065.05   0.128036  647.04  0.037515  ( 0.057084 -0.154440 -0.102003)
 34:   1094.26   0.037845  191.25  0.010793  ( 0.040401 -0.095181 -0.010059)
 35:   1177.30   0.020088  101.52  0.005325  ( 0.047250 -0.013067 -0.054051)
 36:   1185.73   0.240067  1213.20  0.063182  (-0.078947  0.165731  0.171704)
 37:   1267.34   0.038154  192.81  0.009395  ( 0.026534 -0.087168 -0.033054)
 38:   1292.78   0.205589  1038.96  0.049627  ( 0.113878 -0.181965 -0.059559)
 39:   1360.64   0.006124   30.95  0.001405  ( 0.024638 -0.016835  0.022675)
 40:   1396.22   0.143835  726.88  0.032148  (-0.104901  0.143618  0.022758)
 41:   1429.91   0.040924  206.81  0.008931  ( 0.079060 -0.028629  0.043142)
 42:   1462.48   0.001561    7.89  0.000333  ( 0.004845 -0.012004 -0.012868)
 43:   1468.19   0.002104   10.64  0.000447  (-0.017700 -0.011376 -0.002148)
 44:   1487.27   0.016244   82.09  0.003408  (-0.001880 -0.008682 -0.057701)
 45:   1540.58   0.167375  845.85  0.033904  (-0.087764  0.028333 -0.159370)
 46:   1625.51   0.084485  426.95  0.016219  (-0.036744  0.056744  0.107932)
 47:   1660.37   0.113339  572.77  0.021302  (-0.097882  0.023494 -0.105683)
 48:   3049.35   0.022235  112.37  0.002275  (-0.023001  0.014132 -0.039329)
 49:   3128.90   0.004219   21.32  0.000421  (-0.001376 -0.020251 -0.002958)
 50:   3132.64   0.005839   29.51  0.000582  ( 0.020671 -0.002089 -0.012248)
 51:   3205.12   0.005212   26.34  0.000507  (-0.018595  0.012425 -0.002692)
 52:   3244.07   0.000356    1.80  0.000034  ( 0.003431 -0.000729 -0.004686)
 53:   3256.41   0.000715    3.61  0.000069  ( 0.003060 -0.006563 -0.004007)

* The epsilon (eps) is given for a Dirac delta lineshape.
** The dipole moment derivative (T) already includes vibrational overlap.

The first frequency considered to be a vibration is 8
The total number of vibrations considered is 46


--------------------------
THERMOCHEMISTRY AT 298.15K
--------------------------

Temperature         ... 298.15 K
Pressure            ... 1.00 atm
Total Mass          ... 189.18 AMU

Throughout the following assumptions are being made:
  (1) The electronic state is orbitally nondegenerate
  (2) There are no thermally accessible electronically excited states
  (3) Hindered rotations indicated by low frequency modes are not
      treated as such but are treated as vibrations and this may
      cause some error
  (4) All equations used are the standard statistical mechanics
      equations for an ideal gas
  (5) All vibrations are strictly harmonic

freq.      59.71  E(vib)   ...       0.51 
freq.      71.53  E(vib)   ...       0.50 
freq.      80.39  E(vib)   ...       0.48 
freq.     118.44  E(vib)   ...       0.44 
freq.     132.36  E(vib)   ...       0.42 
freq.     185.05  E(vib)   ...       0.37 
freq.     246.47  E(vib)   ...       0.31 
freq.     289.55  E(vib)   ...       0.27 
freq.     388.56  E(vib)   ...       0.20 
freq.     403.73  E(vib)   ...       0.19 
freq.     445.13  E(vib)   ...       0.17 
freq.     465.19  E(vib)   ...       0.16 
freq.     567.56  E(vib)   ...       0.11 
freq.     584.96  E(vib)   ...       0.11 
freq.     672.40  E(vib)   ...       0.08 
freq.     685.30  E(vib)   ...       0.07 
freq.     748.65  E(vib)   ...       0.06 
freq.     759.19  E(vib)   ...       0.06 
freq.     817.36  E(vib)   ...       0.05 
freq.     830.94  E(vib)   ...       0.04 
freq.     900.98  E(vib)   ...       0.03 
freq.     965.29  E(vib)   ...       0.03 
freq.     978.84  E(vib)   ...       0.03 
freq.    1012.07  E(vib)   ...       0.02 
freq.    1018.81  E(vib)   ...       0.02 
freq.    1065.05  E(vib)   ...       0.02 
freq.    1094.26  E(vib)   ...       0.02 
freq.    1177.30  E(vib)   ...       0.01 
freq.    1185.73  E(vib)   ...       0.01 
freq.    1267.34  E(vib)   ...       0.01 
freq.    1292.78  E(vib)   ...       0.01 
freq.    1360.64  E(vib)   ...       0.01 
freq.    1396.22  E(vib)   ...       0.00 
freq.    1429.91  E(vib)   ...       0.00 
freq.    1462.48  E(vib)   ...       0.00 
freq.    1468.19  E(vib)   ...       0.00 
freq.    1487.27  E(vib)   ...       0.00 
freq.    1540.58  E(vib)   ...       0.00 
freq.    1625.51  E(vib)   ...       0.00 
freq.    1660.37  E(vib)   ...       0.00 
freq.    3049.35  E(vib)   ...       0.00 
freq.    3128.90  E(vib)   ...       0.00 
freq.    3132.64  E(vib)   ...       0.00 
freq.    3205.12  E(vib)   ...       0.00 
freq.    3244.07  E(vib)   ...       0.00 
freq.    3256.41  E(vib)   ...       0.00 

------------
INNER ENERGY
------------

The inner energy is: U= E(el) + E(ZPE) + E(vib) + E(rot) + E(trans)
    E(el)   - is the total energy from the electronic structure calculation
              = E(kin-el) + E(nuc-el) + E(el-el) + E(nuc-nuc)
    E(ZPE)  - the the zero temperature vibrational energy from the frequency calculation
    E(vib)  - the the finite temperature correction to E(ZPE) due to population
              of excited vibrational states
    E(rot)  - is the rotational thermal energy
    E(trans)- is the translational thermal energy

Summary of contributions to the inner energy U:
Electronic energy                ...   -990.26656978 Eh
Zero point energy                ...      0.12064852 Eh      75.71 kcal/mol
Thermal vibrational correction   ...      0.00769582 Eh       4.83 kcal/mol
Thermal rotational correction    ...      0.00141627 Eh       0.89 kcal/mol
Thermal translational correction ...      0.00141627 Eh       0.89 kcal/mol
-----------------------------------------------------------------------
Total thermal energy                   -990.13539290 Eh


Summary of corrections to the electronic energy:
(perhaps to be used in another calculation)
Total thermal correction                  0.01052836 Eh       6.61 kcal/mol
Non-thermal (ZPE) correction              0.12064852 Eh      75.71 kcal/mol
-----------------------------------------------------------------------
Total correction                          0.13117688 Eh      82.31 kcal/mol


--------
ENTHALPY
--------

The enthalpy is H = U + kB*T
                kB is Boltzmann's constant
Total free energy                 ...   -990.13539290 Eh 
Thermal Enthalpy correction       ...      0.00094421 Eh       0.59 kcal/mol
-----------------------------------------------------------------------
Total Enthalpy                    ...   -990.13444869 Eh


Note: Only C1 symmetry has been detected, increase convergence thresholds 
      if your molecule has a higher symmetry. Symmetry factor of 1.0 is   
      used for the rotational entropy correction. 
 

Note: Rotational entropy computed according to Herzberg 
Infrared and Raman Spectra, Chapter V,1, Van Nostrand Reinhold, 1945 
Point Group:  C1, Symmetry Number:   1  
Rotational constants in cm-1:     0.032513     0.027917     0.019271 

Vibrational entropy computed according to the QRRHO of S. Grimme
Chem.Eur.J. 2012 18 9955


-------
ENTROPY
-------

The entropy contributions are T*S = T*(S(el)+S(vib)+S(rot)+S(trans))
     S(el)   - electronic entropy
     S(vib)  - vibrational entropy
     S(rot)  - rotational entropy
     S(trans)- translational entropy
The entropies will be listed as multiplied by the temperature to get
units of energy

Electronic entropy                ...      0.00000000 Eh      0.00 kcal/mol
Vibrational entropy               ...      0.01353252 Eh      8.49 kcal/mol
Rotational entropy                ...      0.01468200 Eh      9.21 kcal/mol
Translational entropy             ...      0.01977419 Eh     12.41 kcal/mol
-----------------------------------------------------------------------
Final entropy term                ...      0.04798870 Eh     30.11 kcal/mol

In case the symmetry of your molecule has not been determined correctly
or in case you have a reason to use a different symmetry number we print 
out the resulting rotational entropy values for sn=1,12 :
 --------------------------------------------------------
|  sn= 1 | S(rot)=       0.01468200 Eh      9.21 kcal/mol|
|  sn= 2 | S(rot)=       0.01402754 Eh      8.80 kcal/mol|
|  sn= 3 | S(rot)=       0.01364471 Eh      8.56 kcal/mol|
|  sn= 4 | S(rot)=       0.01337308 Eh      8.39 kcal/mol|
|  sn= 5 | S(rot)=       0.01316239 Eh      8.26 kcal/mol|
|  sn= 6 | S(rot)=       0.01299025 Eh      8.15 kcal/mol|
|  sn= 7 | S(rot)=       0.01284470 Eh      8.06 kcal/mol|
|  sn= 8 | S(rot)=       0.01271863 Eh      7.98 kcal/mol|
|  sn= 9 | S(rot)=       0.01260742 Eh      7.91 kcal/mol|
|  sn=10 | S(rot)=       0.01250794 Eh      7.85 kcal/mol|
|  sn=11 | S(rot)=       0.01241795 Eh      7.79 kcal/mol|
|  sn=12 | S(rot)=       0.01233579 Eh      7.74 kcal/mol|
 --------------------------------------------------------


-------------------
GIBBS FREE ENERGY
-------------------

The Gibbs free energy is G = H - T*S

Total enthalpy                    ...   -990.13444869 Eh 
Total entropy correction          ...     -0.04798870 Eh    -30.11 kcal/mol
-----------------------------------------------------------------------
Final Gibbs free energy         ...   -990.18243739 Eh

For completeness - the Gibbs free energy minus the electronic energy
G-E(el)                           ...      0.08413239 Eh     52.79 kcal/mol



Timings for individual modules:

Sum of individual times         ...    62710.534 sec (=1045.176 min)
GTO integral calculation        ...       46.999 sec (=   0.783 min)   0.1 %
SCF iterations                  ...     1039.980 sec (=  17.333 min)   1.7 %
SCF Gradient evaluation         ...      222.811 sec (=   3.714 min)   0.4 %
Geometry relaxation             ...        1.024 sec (=   0.017 min)   0.0 %
Numerical frequency calculation ...     2395.965 sec (=  39.933 min)   3.8 %
NEB Iterations                  ...    59003.755 sec (= 983.396 min)  94.1 %
                             ****ORCA TERMINATED NORMALLY****
TOTAL RUN TIME: 0 days 17 hours 24 minutes 18 seconds 548 msec
