
                                 *****************
                                 * O   R   C   A *
                                 *****************

                                            #,                                       
                                            ###                                      
                                            ####                                     
                                            #####                                    
                                            ######                                   
                                           ########,                                 
                                     ,,################,,,,,                         
                               ,,#################################,,                 
                          ,,##########################################,,             
                       ,#########################################, ''#####,          
                    ,#############################################,,   '####,        
                  ,##################################################,,,,####,       
                ,###########''''           ''''###############################       
              ,#####''   ,,,,##########,,,,          '''####'''          '####       
            ,##' ,,,,###########################,,,                        '##       
           ' ,,###''''                  '''############,,,                           
         ,,##''                                '''############,,,,        ,,,,,,###''
      ,#''                                            '''#######################'''  
     '                                                          ''''####''''         
             ,#######,   #######,   ,#######,      ##                                
            ,#'     '#,  ##    ##  ,#'     '#,    #''#        ######   ,####,        
            ##       ##  ##   ,#'  ##            #'  '#       #        #'  '#        
            ##       ##  #######   ##           ,######,      #####,   #    #        
            '#,     ,#'  ##    ##  '#,     ,#' ,#      #,         ##   #,  ,#        
             '#######'   ##     ##  '#######'  #'      '#     #####' # '####'        



                  #######################################################
                  #                        -***-                        #
                  #          Department of theory and spectroscopy      #
                  #    Directorship and core code : Frank Neese         #
                  #        Max Planck Institute fuer Kohlenforschung    #
                  #                Kaiser Wilhelm Platz 1               #
                  #                 D-45470 Muelheim/Ruhr               #
                  #                      Germany                        #
                  #                                                     #
                  #                  All rights reserved                #
                  #                        -***-                        #
                  #######################################################


                         Program Version 5.0.4 -  RELEASE  -


 With contributions from (in alphabetic order):
   Daniel Aravena         : Magnetic Suceptibility
   Michael Atanasov       : Ab Initio Ligand Field Theory (pilot matlab implementation)
   Alexander A. Auer      : GIAO ZORA, VPT2 properties, NMR spectrum
   Ute Becker             : Parallelization
   Giovanni Bistoni       : ED, misc. LED, open-shell LED, HFLD
   Martin Brehm           : Molecular dynamics
   Dmytro Bykov           : SCF Hessian
   Vijay G. Chilkuri      : MRCI spin determinant printing, contributions to CSF-ICE
   Dipayan Datta          : RHF DLPNO-CCSD density
   Achintya Kumar Dutta   : EOM-CC, STEOM-CC
   Dmitry Ganyushin       : Spin-Orbit,Spin-Spin,Magnetic field MRCI
   Miquel Garcia          : C-PCM and meta-GGA Hessian, CC/C-PCM, Gaussian charge scheme
   Yang Guo               : DLPNO-NEVPT2, F12-NEVPT2, CIM, IAO-localization
   Andreas Hansen         : Spin unrestricted coupled pair/coupled cluster methods
   Benjamin Helmich-Paris : MC-RPA, TRAH-SCF, COSX integrals
   Lee Huntington         : MR-EOM, pCC
   Robert Izsak           : Overlap fitted RIJCOSX, COSX-SCS-MP3, EOM
   Marcus Kettner         : VPT2
   Christian Kollmar      : KDIIS, OOCD, Brueckner-CCSD(T), CCSD density, CASPT2, CASPT2-K
   Simone Kossmann        : Meta GGA functionals, TD-DFT gradient, OOMP2, MP2 Hessian
   Martin Krupicka        : Initial AUTO-CI
   Lucas Lang             : DCDCAS
   Marvin Lechner         : AUTO-CI (C++ implementation), FIC-MRCC
   Dagmar Lenk            : GEPOL surface, SMD
   Dimitrios Liakos       : Extrapolation schemes; Compound Job, initial MDCI parallelization
   Dimitrios Manganas     : Further ROCIS development; embedding schemes
   Dimitrios Pantazis     : SARC Basis sets
   Anastasios Papadopoulos: AUTO-CI, single reference methods and gradients
   Taras Petrenko         : DFT Hessian,TD-DFT gradient, ASA, ECA, R-Raman, ABS, FL, XAS/XES, NRVS
   Peter Pinski           : DLPNO-MP2, DLPNO-MP2 Gradient
   Christoph Reimann      : Effective Core Potentials
   Marius Retegan         : Local ZFS, SOC
   Christoph Riplinger    : Optimizer, TS searches, QM/MM, DLPNO-CCSD(T), (RO)-DLPNO pert. Triples
   Tobias Risthaus        : Range-separated hybrids, TD-DFT gradient, RPA, STAB
   Michael Roemelt        : Original ROCIS implementation
   Masaaki Saitow         : Open-shell DLPNO-CCSD energy and density
   Barbara Sandhoefer     : DKH picture change effects
   Avijit Sen             : IP-ROCIS
   Kantharuban Sivalingam : CASSCF convergence, NEVPT2, FIC-MRCI
   Bernardo de Souza      : ESD, SOC TD-DFT
   Georgi Stoychev        : AutoAux, RI-MP2 NMR, DLPNO-MP2 response
   Willem Van den Heuvel  : Paramagnetic NMR
   Boris Wezisla          : Elementary symmetry handling
   Frank Wennmohs         : Technical directorship


 We gratefully acknowledge several colleagues who have allowed us to
 interface, adapt or use parts of their codes:
   Stefan Grimme, W. Hujo, H. Kruse, P. Pracht,  : VdW corrections, initial TS optimization,
                  C. Bannwarth, S. Ehlert          DFT functionals, gCP, sTDA/sTD-DF
   Ed Valeev, F. Pavosevic, A. Kumar             : LibInt (2-el integral package), F12 methods
   Garnet Chan, S. Sharma, J. Yang, R. Olivares  : DMRG
   Ulf Ekstrom                                   : XCFun DFT Library
   Mihaly Kallay                                 : mrcc  (arbitrary order and MRCC methods)
   Jiri Pittner, Ondrej Demel                    : Mk-CCSD
   Frank Weinhold                                : gennbo (NPA and NBO analysis)
   Christopher J. Cramer and Donald G. Truhlar   : smd solvation model
   Lars Goerigk                                  : TD-DFT with DH, B97 family of functionals
   V. Asgeirsson, H. Jonsson                     : NEB implementation
   FAccTs GmbH                                   : IRC, NEB, NEB-TS, DLPNO-Multilevel, CI-OPT
                                                   MM, QMMM, 2- and 3-layer-ONIOM, Crystal-QMMM,
                                                   LR-CPCM, SF, NACMEs, symmetry and pop. for TD-DFT,
                                                   nearIR, NL-DFT gradient (VV10), updates on ESD,
                                                   ML-optimized integration grids
   S Lehtola, MJT Oliveira, MAL Marques          : LibXC Library
   Liviu Ungur et al                             : ANISO software


 Your calculation uses the libint2 library for the computation of 2-el integrals
 For citations please refer to: http://libint.valeyev.net

 Your ORCA version has been built with support for libXC version: 5.1.0
 For citations please refer to: https://tddft.org/programs/libxc/

 This ORCA versions uses:
   CBLAS   interface :  Fast vector & matrix operations
   LAPACKE interface :  Fast linear algebra routines
   SCALAPACK package :  Parallel linear algebra routines
   Shared memory     :  Shared parallel matrices
   BLAS/LAPACK       :  OpenBLAS 0.3.15  USE64BITINT DYNAMIC_ARCH NO_AFFINITY SkylakeX SINGLE_THREADED
        Core in use  :  SkylakeX
   Copyright (c) 2011-2014, The OpenBLAS Project




***************************************
The coordinates will be read from file: reactants.xyz
***************************************


Your calculation utilizes the SMD solvation module
Please cite in your paper:
A.V. Marenich, C.J. Cramer, D.G. Truhlar J. Phys. Chem. B, 113, (2009), 6378 

XCFun DFT library Copyright 2009-2010 Ulf Ekstrom and contributors.
See http://admol.org/xcfun for more information.
This is free software; see the source code for copying conditions.
There is ABSOLUTELY NO WARRANTY; not even for MERCHANTABILITY or FITNESS FOR A PARTICULAR PURPOSE.
For details see the documentation.
Scientific users of this library should cite U. Ekstrom, L. Visscher, R. Bast, A. J. Thorvaldsen and K. Ruud;
J.Chem.Theor.Comp. 2010, DOI: 10.1021/ct100117s
XCFun Version 0.99 

================================================================================

----- Orbital basis set information -----
Your calculation utilizes the basis: 6-311++G**
   H, Li - Ne  : R. Krishnan, J. S. Binkley, R. Seeger and J. A. Pople, J. Chem. Phys. 72, 650 (1980).
   Na - Ar     : A. D. McLean and G. S. Chandler J. Chem. Phys. 72, 5639, (1980).
   K  - Ca     : J.-P. Blaudeau, M. P. McGrath, L. A. Curtiss and L. Radom, J. Chem. Phys. 107, 5016 (1997).
   Ga - Kr     : L. A. Curtiss, M. P. McGrath, J.-P. Blandeau, N. E. Davis, R. C. Binning and L. Radom, J. Chem. Phys. 103, 6104 (1995).
   Pol./Diff.
   H, Li - Cl  : T. Clark, J. Chandrasekhar and P. v. R. Schleyer, J. Comp. Chem. 4, 294 (1983).
   H - Ne      : M. J. Frisch, J. A. Pople and J. S. Binkley, J. Chem. Phys. 80, 3265 (1984).

----- AuxJ basis set information -----
Your calculation utilizes the auxiliary basis: def2/J
   F. Weigend, Phys. Chem. Chem. Phys. 8, 1057 (2006).

================================================================================
                                        WARNINGS
                       Please study these warnings very carefully!
================================================================================


WARNING: Geometry Optimization
  ===> : Switching off AutoStart
         For restart on a previous wavefunction, please use MOREAD

INFO   : the flag for use of the SHARK integral package has been found!

================================================================================
                                       INPUT FILE
================================================================================
NAME = structure_opt.inp
|  1> !wb97x 6-311++G** OPT CPCM(WATER)
|  2> %maxcore  3500
|  3> %pal
|  4> nprocs 24
|  5> end
|  6> %cpcm
|  7> smd true
|  8> SMDsolvent "water"
|  9> end
| 10> %geom
| 11> ConstrainFragments {1} end
| 12> ConstrainFragments {4} end
| 13> ConnectFragments
| 14> { 1 2 C 5 7 }
| 15> { 1 2 C 0 9 }
| 16> { 2 3 C 13 5 }
| 17> { 3 4 C 13 17 }
| 18> end
| 19> end
| 20> * XYZfile -1 1 reactants.xyz
| 21> %geom
| 22> Fragments
| 23> 1 {0:5} end
| 24> 2 {6:12} end
| 25> 3 {13:16} end
| 26> 4 {17} end
| 27> end
| 28> end
| 29> 
| 30>                          ****END OF INPUT****
================================================================================

                       *****************************
                       * Geometry Optimization Run *
                       *****************************

Geometry optimization settings:
Update method            Update   .... BFGS
Choice of coordinates    CoordSys .... Z-matrix Internals
Initial Hessian          InHess   .... Almoef's Model

Convergence Tolerances:
Energy Change            TolE     ....  5.0000e-06 Eh
Max. Gradient            TolMAXG  ....  3.0000e-04 Eh/bohr
RMS Gradient             TolRMSG  ....  1.0000e-04 Eh/bohr
Max. Displacement        TolMAXD  ....  4.0000e-03 bohr
RMS Displacement         TolRMSD  ....  2.0000e-03 bohr
Strict Convergence                ....  False
------------------------------------------------------------------------------
                        ORCA OPTIMIZATION COORDINATE SETUP
------------------------------------------------------------------------------

The optimization will be done in new redundant internal coordinates
Making redundant internal coordinates   ...  (new redundants) done
Evaluating the initial hessian          ...  (Almloef) done
Evaluating the coordinates              ...  done
Calculating the B-matrix                .... done
Calculating the G-matrix                .... done
Diagonalizing the G-matrix              .... done
Imposing constraints:
 Iter   0:  RMS(Cart)=    0.0000000000 RMS(Int)=    0.0000000000
CONVERGED
Small eigenvalue found = 3.308e-03
Small eigenvalue found = 7.311e-03
Small eigenvalue found = 1.031e-02
Small eigenvalue found = 2.985e-02
The first mode is                       ....   56
The number of degrees of freedom        ....   48
Storing new coordinates                 .... done

    -----------------------------------------------------------------
                    Redundant Internal Coordinates


    -----------------------------------------------------------------
         Definition                    Initial Value    Approx d2E/dq
    -----------------------------------------------------------------
      1. B(N   1,C   0)                  1.3611         0.622347   
      2. B(C   2,N   1)                  1.3582         0.628875   
      3. B(C   3,C   2)                  1.3949         0.613658   
      4. B(C   4,C   3)                  1.3934         0.616971   
      5. B(C   5,C   0)                  1.4122         0.575774   
      6. B(C   5,C   4)                  1.4061         0.588917   
      7. B(O   7,C   5)                  2.3435         0.016853 C 
      8. B(O   7,N   6)                  1.2480         0.844503   
      9. B(O   8,N   6)                  1.3769         0.525866   
     10. B(F   9,C   0)                  1.3500         0.602260 C 
     11. B(F   9,N   6)                  2.8678         0.002044   
     12. B(F   9,O   7)                  2.5821         0.005837   
     13. B(H  11,H  10)                  2.4818         0.000415   
     14. B(H  12,O   8)                  2.5152         0.001717   
     15. B(H  12,H  11)                  2.4663         0.000439   
     16. B(H  12,N   6)                  2.7029         0.000861   
     17. B(C  13,H  10)                  8.4884         0.000000 C 
     18. B(H  14,C  13)                  1.0944         0.354319   
     19. B(H  15,C  13)                  1.0928         0.356405   
     20. B(H  16,C  13)                  1.0929         0.356220   
     21. B(S  17,C  13)                  1.8031         0.369292 C 
     22. A(C   5,C   0,F   9)          121.1725         0.421471 C 
     23. A(N   1,C   0,C   5)          120.1571         0.425830   
     24. A(N   1,C   0,F   9)          118.6704         0.424592 C 
     25. A(C   0,N   1,C   2)          121.9524         0.429796   
     26. A(N   1,C   2,C   3)          120.0262         0.431531   
     27. A(C   2,C   3,C   4)          119.3498         0.432882   
     28. A(C   3,C   4,C   5)          120.4718         0.429694   
     29. A(C   4,C   5,O   7)          147.4261         0.238582 C 
     30. A(C   0,C   5,O   7)           94.5313         0.237820 C 
     31. A(C   0,C   5,C   4)          118.0425         0.424407   
     32. A(O   8,N   6,H  12)           67.2752         0.152046   
     33. A(O   7,N   6,H  12)          174.2234         0.159181   
     34. A(O   7,N   6,O   8)          118.5014         0.433822   
     35. A(F   9,N   6,H  12)          110.0144         0.106848   
     36. A(O   7,N   6,F   9)           64.2090         0.186619   
     37. A(N   6,O   7,F   9)           89.9947         0.212791   
     38. A(C   5,O   7,N   6)           31.7456         0.248611 C 
     39. A(C   5,O   7,F   9)           58.2491         0.140475 C 
     40. A(N   6,O   8,H  12)           82.3972         0.162696   
     41. A(N   6,F   9,O   7)           25.7962         0.120482   
     42. A(C   0,F   9,O   7)           86.0471         0.203997 C 
     43. A(C   0,F   9,N   6)           60.2509         0.179684 C 
     44. A(H  11,H  10,C  13)           90.3068         0.089074 C 
     45. A(H  10,H  11,H  12)          119.7063         0.095112   
     46. A(N   6,H  12,O   8)           30.3275         0.103999   
     47. A(N   6,H  12,H  11)          126.7169         0.097913   
     48. A(O   8,H  12,H  11)          157.0445         0.099419   
     49. A(H  14,C  13,H  15)          108.9995         0.289633   
     50. A(H  14,C  13,H  16)          108.9136         0.289609   
     51. A(H  15,C  13,H  16)          109.1001         0.289876   
     52. A(H  10,C  13,H  14)           87.3612         0.089428 C 
     53. A(H  10,C  13,H  15)           97.2000         0.089429 C 
     54. A(H  10,C  13,H  16)          141.5263         0.089429 C 
     55. A(H  14,C  13,S  17)          109.9531         0.339264 C 
     56. A(H  15,C  13,S  17)          109.9749         0.339597 C 
     57. A(H  16,C  13,S  17)          109.8741         0.339567 C 
     58. A(H  10,C  13,S  17)           32.5772         0.089535   
     59. D(C   2,N   1,C   0,C   5)     -0.1041         0.028432   
     60. D(C   2,N   1,C   0,F   9)    179.9112         0.028432 C 
     61. D(C   3,C   2,N   1,C   0)      0.1066         0.025783   
     62. D(C   4,C   3,C   2,N   1)     -0.0956         0.020965   
     63. D(C   5,C   4,C   3,C   2)      0.0854         0.021202   
     64. D(C   4,C   5,C   0,N   1)      0.0896         0.022761   
     65. D(O   7,C   5,C   0,N   1)    179.9933         0.022761 C 
     66. D(O   7,C   5,C   4,C   3)   -179.9036         0.021656 C 
     67. D(C   0,C   5,C   4,C   3)     -0.0818         0.021656   
     68. D(C   4,C   5,C   0,F   9)   -179.9260         0.022761 C 
     69. D(O   7,C   5,C   0,F   9)     -0.0223         0.022761 C 
     70. D(F   9,O   7,C   5,C   0)      0.0117         0.001517 C 
     71. D(N   6,O   7,C   5,C   0)   -179.9521         0.001517 C 
     72. D(N   6,O   7,C   5,C   4)     -0.1099         0.001517 C 
     73. D(F   9,O   7,C   5,C   4)    179.8539         0.001517 C 
     74. D(F   9,O   7,N   6,O   8)    179.9932         0.079747   
     75. D(F   9,O   7,N   6,H  12)      0.1568         0.079747   
     76. D(C   5,O   7,N   6,O   8)   -179.9761         0.079747 C 
     77. D(C   5,O   7,N   6,H  12)      0.1876         0.079747 C 
     78. D(C   5,O   7,N   6,F   9)      0.0308         0.079747 C 
     79. D(H  12,O   8,N   6,O   7)   -179.9821         0.025649   
     80. D(C   0,F   9,O   7,C   5)     -0.0123         0.001503 C 
     81. D(N   6,F   9,C   0,C   5)      0.0236         0.032536 C 
     82. D(O   7,F   9,C   0,N   1)   -179.9952         0.032536 C 
     83. D(O   7,F   9,C   0,C   5)      0.0202         0.032536 C 
     84. D(O   7,F   9,N   6,H  12)   -179.9832         0.001500   
     85. D(C   0,F   9,N   6,O   7)   -179.9922         0.001500 C 
     86. D(C   0,F   9,N   6,H  12)      0.0246         0.001500 C 
     87. D(N   6,F   9,O   7,C   5)     -0.0190         0.001503 C 
     88. D(N   6,F   9,C   0,N   1)   -179.9918         0.032536 C 
     89. D(C   0,F   9,O   7,N   6)      0.0068         0.001503 C 
     90. D(O   7,F   9,O   8,H  12)   -179.9897         0.001500   
     91. D(C   0,F   9,O   8,H  12)      0.0232         0.001500 C 
     92. D(H  12,H  11,H  10,C  13)     77.2101         0.001501 C 
     93. D(O   8,H  12,N   6,O   7)    179.8441         0.001501   
     94. D(O   8,H  12,N   6,F   9)    179.9943         0.001501   
     95. D(H  11,H  12,N   6,O   7)     -0.1748         0.001501   
     96. D(H  11,H  12,N   6,O   8)    179.9811         0.001501   
     97. D(H  11,H  12,N   6,F   9)     -0.0245         0.001501   
     98. D(H  11,H  12,O   8,N   6)     -0.0388         0.001502   
     99. D(N   6,H  12,H  11,H  10)      0.0466         0.001502   
    100. D(O   8,H  12,H  11,H  10)      0.0710         0.001502   
    101. D(H  14,C  13,H  10,H  11)    129.0977         0.001500 C 
    102. D(H  15,C  13,H  10,H  11)     20.2730         0.001500 C 
    103. D(H  16,C  13,H  10,H  11)   -113.2855         0.001500 C 
    104. D(S  17,C  13,H  10,H  11)    -95.9445         0.001500   
    -----------------------------------------------------------------

Number of atoms                         .... 18
Number of degrees of freedom            .... 104

         *************************************************************
         *                GEOMETRY OPTIMIZATION CYCLE   1            *
         *************************************************************
---------------------------------
CARTESIAN COORDINATES (ANGSTROEM)
---------------------------------
  C      0.000000    0.000000    1.820000
  N      1.178000   -0.196000    2.473000
  C      1.255000   -0.207000    3.829000
  C      0.105000   -0.016000    4.595000
  C     -1.116000    0.187000    3.955000
  C     -1.192000    0.198000    2.551000
  N     -2.456000    0.409000    1.893000
  O     -2.541000    0.423000    0.648000
  O     -3.602000    0.600000    2.632000
  F      0.000000    0.000000    0.470000
  H      2.209000   -0.366000    4.313000
  H      0.163000   -0.026000    5.676000
  H     -2.005000    0.335000    4.557000
  C      2.587000    7.963000    2.720000
  H      3.632000    7.926000    3.043000
  H      1.967000    8.291000    3.558000
  H      2.494000    8.683000    1.903000
  S      2.057000    6.332000    2.163000

----------------------------
CARTESIAN COORDINATES (A.U.)
----------------------------
  NO LB      ZA    FRAG     MASS         X           Y           Z
   0 C     6.0000    1    12.011    0.000000    0.000000    3.439302
   1 N     7.0000    1    14.007    2.226097   -0.370386    4.673293
   2 C     6.0000    1    12.011    2.371606   -0.391173    7.235761
   3 C     6.0000    1    12.011    0.198421   -0.030236    8.683292
   4 C     6.0000    1    12.011   -2.108934    0.353379    7.473867
   5 C     6.0000    1    12.011   -2.252554    0.374166    4.820691
   6 N     7.0000    2    14.007   -4.641167    0.772898    3.577252
   7 O     8.0000    2    15.999   -4.801794    0.799354    1.224543
   8 O     8.0000    2    15.999   -6.806794    1.133836    4.973759
   9 F     9.0000    2    18.998    0.000000    0.000000    0.888171
  10 H     1.0000    2     1.008    4.174405   -0.691640    8.150389
  11 H     1.0000    2     1.008    0.308025   -0.049133   10.726086
  12 H     1.0000    2     1.008   -3.788901    0.633058    8.611482
  13 C     6.0000    3    12.011    4.888722   15.047889    5.140055
  14 H     1.0000    3     1.008    6.863485   14.977969    5.750437
  15 H     1.0000    3     1.008    3.717091   15.667719    6.723646
  16 H     1.0000    3     1.008    4.712977   16.408492    3.596149
  17 S    16.0000    4    32.060    3.887167   11.965746    4.087478

----------------------------------------------
CARTESIAN COORDINATES OF FRAGMENTS (ANGSTROEM)
----------------------------------------------

 FRAGMENT 1 
  C     0.000000    0.000000    1.820000
  N     1.178000   -0.196000    2.473000
  C     1.255000   -0.207000    3.829000
  C     0.105000   -0.016000    4.595000
  C    -1.116000    0.187000    3.955000
  C    -1.192000    0.198000    2.551000

 FRAGMENT 2 
  N    -2.456000    0.409000    1.893000
  O    -2.541000    0.423000    0.648000
  O    -3.602000    0.600000    2.632000
  F     0.000000    0.000000    0.470000
  H     2.209000   -0.366000    4.313000
  H     0.163000   -0.026000    5.676000
  H    -2.005000    0.335000    4.557000

 FRAGMENT 3 
  C     2.587000    7.963000    2.720000
  H     3.632000    7.926000    3.043000
  H     1.967000    8.291000    3.558000
  H     2.494000    8.683000    1.903000

 FRAGMENT 4 
  S     2.057000    6.332000    2.163000

--------------------------------
INTERNAL COORDINATES (ANGSTROEM)
--------------------------------
 C      0   0   0     0.000000000000     0.00000000     0.00000000
 N      1   0   0     1.361069065110     0.00000000     0.00000000
 C      2   1   0     1.358228993948   121.95243626     0.00000000
 C      3   2   1     1.394896770374   120.02620694     0.10655554
 C      4   3   2     1.393431017309   119.34983770   359.90435571
 C      5   4   3     1.406098502951   120.47178172     0.08537773
 N      6   5   4     1.440548853736   120.30882193   180.03842131
 O      7   6   5     1.247976762604   121.13704526   179.93147861
 O      7   6   5     1.376923382037   120.36156660   359.90709941
 F      1   2   3     1.350000000000   118.67037638   179.91115691
 H      3   2   1     1.081504969938   119.86701156   179.98746005
 H      4   3   2     1.082601034546   120.19197482   179.89186186
 H      5   4   3     1.083803026384   118.91636700   180.02085854
 C      2   1   3     8.283451635641    91.12790685   271.41972004
 H     14   2   1     1.094405317970    97.92747568   191.55663192
 H     14   2   1     1.092807393826   102.82630771    79.91390943
 H     14   2   1     1.092949221144   127.74200420   312.99945984
 S     14   2   1     1.803138929756    18.16690795   324.45562085

---------------------------
INTERNAL COORDINATES (A.U.)
---------------------------
 C      0   0   0     0.000000000000     0.00000000     0.00000000
 N      1   0   0     2.572047782411     0.00000000     0.00000000
 C      2   1   0     2.566680825712   121.95243626     0.00000000
 C      3   2   1     2.635972881098   120.02620694     0.10655554
 C      4   3   2     2.633203009226   119.34983770   359.90435571
 C      5   4   3     2.657141087893   120.47178172     0.08537773
 N      6   5   4     2.722242816095   120.30882193   180.03842131
 O      7   6   5     2.358334302820   121.13704526   179.93147861
 O      7   6   5     2.602008099442   120.36156660   359.90709941
 F      1   2   3     2.551130280794   118.67037638   179.91115691
 H      3   2   1     2.043748205657   119.86701156   179.98746005
 H      4   3   2     2.045819467592   120.19197482   179.89186186
 H      5   4   3     2.048090902982   118.91636700   180.02085854
 C      2   1   3    15.653455034943    91.12790685   271.41972004
 H     14   2   1     2.068126330469    97.92747568   191.55663192
 H     14   2   1     2.065106691455   102.82630771    79.91390943
 H     14   2   1     2.065374706245   127.74200420   312.99945984
 S     14   2   1     3.407438758650    18.16690795   324.45562085

---------------------
BASIS SET INFORMATION
---------------------
There are 6 groups of distinct atoms

 Group   1 Type C   : 12s6p1d contracted to 5s4p1d pattern {63111/3111/1}
 Group   2 Type N   : 12s6p1d contracted to 5s4p1d pattern {63111/3111/1}
 Group   3 Type O   : 12s6p1d contracted to 5s4p1d pattern {63111/3111/1}
 Group   4 Type F   : 12s6p1d contracted to 5s4p1d pattern {63111/3111/1}
 Group   5 Type H   : 6s1p contracted to 4s1p pattern {3111/1}
 Group   6 Type S   : 14s10p1d contracted to 7s6p1d pattern {6311111/421111/1}

Atom   0C    basis set group =>   1
Atom   1N    basis set group =>   2
Atom   2C    basis set group =>   1
Atom   3C    basis set group =>   1
Atom   4C    basis set group =>   1
Atom   5C    basis set group =>   1
Atom   6N    basis set group =>   2
Atom   7O    basis set group =>   3
Atom   8O    basis set group =>   3
Atom   9F    basis set group =>   4
Atom  10H    basis set group =>   5
Atom  11H    basis set group =>   5
Atom  12H    basis set group =>   5
Atom  13C    basis set group =>   1
Atom  14H    basis set group =>   5
Atom  15H    basis set group =>   5
Atom  16H    basis set group =>   5
Atom  17S    basis set group =>   6
---------------------------------
AUXILIARY/J BASIS SET INFORMATION
---------------------------------
There are 6 groups of distinct atoms

 Group   1 Type C   : 12s5p4d2f1g contracted to 6s4p3d1f1g pattern {711111/2111/211/2/1}
 Group   2 Type N   : 12s5p4d2f1g contracted to 6s4p3d1f1g pattern {711111/2111/211/2/1}
 Group   3 Type O   : 12s5p4d2f1g contracted to 6s4p3d1f1g pattern {711111/2111/211/2/1}
 Group   4 Type F   : 12s5p4d2f1g contracted to 6s4p3d1f1g pattern {711111/2111/211/2/1}
 Group   5 Type H   : 5s2p1d contracted to 3s1p1d pattern {311/2/1}
 Group   6 Type S   : 14s5p5d2f1g contracted to 8s4p3d1f1g pattern {71111111/2111/311/2/1}

Atom   0C    basis set group =>   1
Atom   1N    basis set group =>   2
Atom   2C    basis set group =>   1
Atom   3C    basis set group =>   1
Atom   4C    basis set group =>   1
Atom   5C    basis set group =>   1
Atom   6N    basis set group =>   2
Atom   7O    basis set group =>   3
Atom   8O    basis set group =>   3
Atom   9F    basis set group =>   4
Atom  10H    basis set group =>   5
Atom  11H    basis set group =>   5
Atom  12H    basis set group =>   5
Atom  13C    basis set group =>   1
Atom  14H    basis set group =>   5
Atom  15H    basis set group =>   5
Atom  16H    basis set group =>   5
Atom  17S    basis set group =>   6


           ************************************************************
           *        Program running with 24 parallel MPI-processes    *
           *              working on a common directory               *
           ************************************************************
------------------------------------------------------------------------------
                           ORCA GTO INTEGRAL CALCULATION
                           -- RI-GTO INTEGRALS CHOSEN --
------------------------------------------------------------------------------
------------------------------------------------------------------------------
                   ___                                                        
                  /   \      - P O W E R E D   B Y -                         
                 /     \                                                     
                 |  |  |   _    _      __       _____    __    __             
                 |  |  |  | |  | |    /  \     |  _  \  |  |  /  |          
                  \  \/   | |  | |   /    \    | | | |  |  | /  /          
                 / \  \   | |__| |  /  /\  \   | |_| |  |  |/  /          
                |  |  |   |  __  | /  /__\  \  |    /   |      \           
                |  |  |   | |  | | |   __   |  |    \   |  |\   \          
                \     /   | |  | | |  |  |  |  | |\  \  |  | \   \       
                 \___/    |_|  |_| |__|  |__|  |_| \__\ |__|  \__/        
                                                                              
                      - O R C A' S   B I G   F R I E N D -                    
                                      &                                       
                       - I N T E G R A L  F E E D E R -                       
                                                                              
 v1 FN, 2020, v2 2021                                                         
------------------------------------------------------------------------------


Reading SHARK input file structure_opt.SHARKINP.tmp ... ok
----------------------
SHARK INTEGRAL PACKAGE
----------------------

Number of atoms                             ...     18
Number of basis functions                   ...    314
Number of shells                            ...    154
Maximum angular momentum                    ...      2
Integral batch strategy                     ... SHARK/LIBINT Hybrid
RI-J (if used) integral strategy            ... SPLIT-RIJ (Revised 2003 algorithm where possible)
Printlevel                                  ...      1
Contraction scheme used                     ... SEGMENTED contraction
Coulomb Range Separation                    ... NOT USED
Exchange Range Separation                   ... Long Range
   Mu parameter                             ...  0.300000
   Scaling (regular/separated)              ...  0.157706  0.842294
Finite Nucleus Model                        ... NOT USED
Auxiliary Coulomb fitting basis             ... AVAILABLE
   # of basis functions in Aux-J            ...    656
   # of shells in Aux-J                     ...    212
   Maximum angular momentum in Aux-J        ...      4
Auxiliary J/K fitting basis                 ... NOT available
Auxiliary Correlation fitting basis         ... NOT available
Auxiliary 'external' fitting basis          ... NOT available
Integral threshold                          ...     2.500000e-11
Primitive cut-off                           ...     2.500000e-12
Primitive pair pre-selection threshold      ...     2.500000e-12

Calculating pre-screening integrals         ... done (  0.0 sec) Dimension = 154
Organizing shell pair data                  ... done (  0.1 sec)
Shell pair information
Total number of shell pairs                 ...     11935
Shell pairs after pre-screening             ...      8870
Total number of primitive shell pairs       ...     38500
Primitive shell pairs kept                  ...     20233
          la=0 lb=0:   2715 shell pairs
          la=1 lb=0:   3654 shell pairs
          la=1 lb=1:   1259 shell pairs
          la=2 lb=0:    707 shell pairs
          la=2 lb=1:    483 shell pairs
          la=2 lb=2:     52 shell pairs

Calculating one electron integrals          ... done (  0.0 sec)
Calculating RI/J V-Matrix + Cholesky decomp.... done (  0.1 sec)
Calculating Nuclear repulsion               ... done (  0.0 sec) ENN=    674.469361605529 Eh

SHARK setup successfully completed in   2.2 seconds

Maximum memory used throughout the entire GTOINT-calculation: 17.6 MB


           ************************************************************
           *        Program running with 24 parallel MPI-processes    *
           *              working on a common directory               *
           ************************************************************
-------------------------------------------------------------------------------
                                 ORCA SCF
-------------------------------------------------------------------------------

------------
SCF SETTINGS
------------
Hamiltonian:
 Density Functional     Method          .... DFT(GTOs)
 Exchange Functional    Exchange        .... WB97X
 Correlation Functional Correlation     .... WB97X
 Gradients option       PostSCFGGA      .... off
 Hybrid DFT is turned on
   Fraction HF Exchange ScalHFX         ....  0.157706
   Scaling of DF-GGA-X  ScalDFX         ....  0.000000
   Scaling of DF-GGA-C  ScalDFC         ....  1.000000
   Scaling of DF-LDA-C  ScalLDAC        ....  1.000000
   Perturbative correction              ....  0.000000
   Density functional embedding theory  .... OFF
 Long-range corrected/Screened/Range-Separated Hybrid DFT is turned on
   Amount of maximum screened exact exchange              ....  0.842294
   Range separation parameter mu (erf(mu*r12)/r12)        ....  0.300000
 RI-approximation to the Coulomb term is turned on
   Number of AuxJ basis functions       .... 656
   RIJ-COSX (HFX calculated with COS-X)).... on


General Settings:
 Integral files         IntName         .... structure_opt
 Hartree-Fock type      HFTyp           .... RHF
 Total Charge           Charge          ....   -1
 Multiplicity           Mult            ....    1
 Number of Electrons    NEL             ....   98
 Basis Dimension        Dim             ....  314
 Nuclear Repulsion      ENuc            ....    674.4693616055 Eh

Convergence Acceleration:
 DIIS                   CNVDIIS         .... on
   Start iteration      DIISMaxIt       ....    12
   Startup error        DIISStart       ....  0.200000
   # of expansion vecs  DIISMaxEq       ....     5
   Bias factor          DIISBfac        ....   1.050
   Max. coefficient     DIISMaxC        ....  10.000
 Trust-Rad. Augm. Hess. CNVTRAH         .... auto
   Auto Start mean grad. ratio tolernc. ....  1.125000
   Auto Start start iteration           ....    20
   Auto Start num. interpolation iter.  ....    10
   Max. Number of Micro iterations      ....    16
   Max. Number of Macro iterations      .... Maxiter - #DIIS iter
   Number of Davidson start vectors     ....     2
   Converg. threshold I  (grad. norm)   ....   1.000e-05
   Converg. threshold II (energy diff.) ....   1.000e-08
   Grad. Scal. Fac. for Micro threshold ....   0.100
   Minimum threshold for Micro iter.    ....   0.010
   NR start threshold (gradient norm)   ....   0.001
   Initial trust radius                 ....   0.400
   Minimum AH scaling param. (alpha)    ....   1.000
   Maximum AH scaling param. (alpha)    .... 1000.000
   Orbital update algorithm             .... Taylor
   White noise on init. David. guess    .... on
   Maximum white noise                  ....   0.010
   Quad. conv. algorithm                .... NR
 SOSCF                  CNVSOSCF        .... on
   Start iteration      SOSCFMaxIt      ....   150
   Startup grad/error   SOSCFStart      ....  0.003300
 Level Shifting         CNVShift        .... on
   Level shift para.    LevelShift      ....    0.2500
   Turn off err/grad.   ShiftErr        ....    0.0010
 Zerner damping         CNVZerner       .... off
 Static damping         CNVDamp         .... on
   Fraction old density DampFac         ....    0.7000
   Max. Damping (<1)    DampMax         ....    0.9800
   Min. Damping (>=0)   DampMin         ....    0.0000
   Turn off err/grad.   DampErr         ....    0.1000
 Fernandez-Rico         CNVRico         .... off

SCF Procedure:
 Maximum # iterations   MaxIter         ....   125
 SCF integral mode      SCFMode         .... Direct
   Integral package                     .... SHARK and LIBINT hybrid scheme
 Reset frequency        DirectResetFreq ....    20
 Integral Threshold     Thresh          ....  2.500e-11 Eh
 Primitive CutOff       TCut            ....  2.500e-12 Eh

Convergence Tolerance:
 Convergence Check Mode ConvCheckMode   .... Total+1el-Energy
 Convergence forced     ConvForced      .... 0
 Energy Change          TolE            ....  1.000e-08 Eh
 1-El. energy change                    ....  1.000e-05 Eh
 Orbital Gradient       TolG            ....  1.000e-05
 Orbital Rotation angle TolX            ....  1.000e-05
 DIIS Error             TolErr          ....  5.000e-07


Diagonalization of the overlap matrix:
Smallest eigenvalue                        ... 4.408e-06
Time for diagonalization                   ...    0.052 sec
Threshold for overlap eigenvalues          ... 1.000e-08
Number of eigenvalues below threshold      ... 0
Time for construction of square roots      ...    0.039 sec
Total time needed                          ...    0.093 sec

Time for model grid setup =    0.155 sec

------------------------------
INITIAL GUESS: MODEL POTENTIAL
------------------------------
Loading Hartree-Fock densities                     ... done
Calculating cut-offs                               ... done
Initializing the effective Hamiltonian             ... done
Setting up the integral package (SHARK)            ... done
Starting the Coulomb interaction                   ... done (   0.1 sec)
Reading the grid                                   ... done
Mapping shells                                     ... done
Starting the XC term evaluation                    ... done (   0.0 sec)
  promolecular density results
     # of electrons  =     96.996276074
     EX              =    -96.552513549
     EC              =     -3.327212781
     EX+EC           =    -99.879726330
Transforming the Hamiltonian                       ... done (   0.0 sec)
Diagonalizing the Hamiltonian                      ... done (   0.0 sec)
Back transforming the eigenvectors                 ... done (   0.0 sec)
Now organizing SCF variables                       ... done
                      ------------------
                      INITIAL GUESS DONE (   0.3 sec)
                      ------------------
-------------------
DFT GRID GENERATION
-------------------

General Integration Accuracy     IntAcc      ... 4.388
Radial Grid Type                 RadialGrid  ... OptM3 with GC (2021)
Angular Grid (max. ang.)         AngularGrid ... 4 (Lebedev-302)
Angular grid pruning method      GridPruning ... 4 (adaptive)
Weight generation scheme         WeightScheme... Becke
Basis function cutoff            BFCut       ... 1.0000e-11
Integration weight cutoff        WCut        ... 1.0000e-14
Angular grids for H and He will be reduced by one unit
Partially contracted basis set               ... off
Rotationally invariant grid construction     ... off

Total number of grid points                  ...    98148
Total number of batches                      ...     1542
Average number of points per batch           ...       63
Average number of grid points per atom       ...     5453
Time for grid setup =    0.562 sec

--------------------
COSX GRID GENERATION
--------------------

GRIDX 1
-------
General Integration Accuracy     IntAcc      ... 3.816
Radial Grid Type                 RadialGrid  ... OptM3 with GC (2021)
Angular Grid (max. ang.)         AngularGrid ... 1 (Lebedev-50)
Angular grid pruning method      GridPruning ... 4 (adaptive)
Weight generation scheme         WeightScheme... Becke
Basis function cutoff            BFCut       ... 1.0000e-11
Integration weight cutoff        WCut        ... 1.0000e-14
Angular grids for H and He will be reduced by one unit
Partially contracted basis set               ... on
Rotationally invariant grid construction     ... off

Total number of grid points                  ...    12258
Total number of batches                      ...      202
Average number of points per batch           ...       60
Average number of grid points per atom       ...      681
UseSFitting                                  ... on

GRIDX 2
-------
General Integration Accuracy     IntAcc      ... 4.020
Radial Grid Type                 RadialGrid  ... OptM3 with GC (2021)
Angular Grid (max. ang.)         AngularGrid ... 2 (Lebedev-110)
Angular grid pruning method      GridPruning ... 4 (adaptive)
Weight generation scheme         WeightScheme... Becke
Basis function cutoff            BFCut       ... 1.0000e-11
Integration weight cutoff        WCut        ... 1.0000e-14
Angular grids for H and He will be reduced by one unit
Partially contracted basis set               ... on
Rotationally invariant grid construction     ... off

Total number of grid points                  ...    31105
Total number of batches                      ...      496
Average number of points per batch           ...       62
Average number of grid points per atom       ...     1728
UseSFitting                                  ... on

GRIDX 3
-------
General Integration Accuracy     IntAcc      ... 4.338
Radial Grid Type                 RadialGrid  ... OptM3 with GC (2021)
Angular Grid (max. ang.)         AngularGrid ... 3 (Lebedev-194)
Angular grid pruning method      GridPruning ... 4 (adaptive)
Weight generation scheme         WeightScheme... Becke
Basis function cutoff            BFCut       ... 1.0000e-11
Integration weight cutoff        WCut        ... 1.0000e-14
Angular grids for H and He will be reduced by one unit
Partially contracted basis set               ... on
Rotationally invariant grid construction     ... off

Total number of grid points                  ...    69144
Total number of batches                      ...     1089
Average number of points per batch           ...       63
Average number of grid points per atom       ...     3841
UseSFitting                                  ... on

Time for X-Grid setup             =    1.189 sec


--------------------
CPCM SOLVATION MODEL
--------------------
CPCM parameters:
  Epsilon                                         ...      78.3550
  Refrac                                          ...       1.3328
  Rsolv                                           ...       1.3000
  Surface type                                    ... GAUSSIAN VDW
  Epsilon function type                           ...         CPCM
Solvent:                                     ... WATER
SMD-CDS solvent descriptors:
  Soln                                       ...    1.3328
  Soln25                                     ...    1.3323
  Sola                                       ...    0.0000
  Solb                                       ...    0.0000
  Solg                                       ...    0.0000
  Solc                                       ...    0.0000
  Solh                                       ...    0.0000
Radii:
 Radius for C  used is    3.4960 Bohr (=   1.8500 Ang.)
 Radius for N  used is    3.5716 Bohr (=   1.8900 Ang.)
 Radius for O  used is    2.8724 Bohr (=   1.5200 Ang.)
 Radius for F  used is    3.2692 Bohr (=   1.7300 Ang.)
 Radius for H  used is    2.2677 Bohr (=   1.2000 Ang.)
 Radius for S  used is    4.7054 Bohr (=   2.4900 Ang.)
Calculating surface                               ...        done! (  0.0s)
GEPOL surface points                              ...         1154
GEPOL Volume                                      ...    1363.3473
GEPOL Surface-area                                ...     848.6587
Calculating surface distance matrix               ...        done! (  0.0s)
Performing Cholesky decomposition & store         ...        done! (  0.1s)
Overall time for CPCM initialization              ...                 0.1s
--------------
SCF ITERATIONS
--------------
ITER       Energy         Delta-E        Max-DP      RMS-DP      [F,P]     Damp
               ***  Starting incremental Fock matrix formation  ***
  0   -989.8660503452   0.000000000000 0.32529515  0.00313605  0.2373474 0.7000
  1   -990.0282755530  -0.162225207792 0.29448095  0.00255688  0.1156695 0.7000
                               ***Turning on DIIS***
  2   -990.1007173059  -0.072441752832 1.63547261  0.00922350  0.0599586 0.0000
  3   -990.2247671870  -0.124049881183 0.72198997  0.00382062  0.0550071 0.0000
  4   -990.2439132645  -0.019146077427 0.26835741  0.00141054  0.0124232 0.0000
  5   -990.2450874905  -0.001174226073 0.13343956  0.00072493  0.0061399 0.0000
                      *** Initiating the SOSCF procedure ***
                           *** Shutting down DIIS ***
                      *** Re-Reading the Fockian *** 
                      *** Removing any level shift *** 
ITER      Energy       Delta-E        Grad      Rot      Max-DP    RMS-DP
  6   -990.24531824  -0.0002307459  0.001499  0.001499  0.039836  0.000239
               *** Restarting incremental Fock matrix formation ***
  7   -990.24539490  -0.0000766597  0.000981  0.002408  0.014802  0.000195
  8   -990.24543430  -0.0000393996  0.000344  0.002523  0.012821  0.000184
  9   -990.24544043  -0.0000061300  0.000685  0.000720  0.009330  0.000095
 10   -990.24544724  -0.0000068186  0.000112  0.000187  0.002690  0.000028
 11   -990.24544730  -0.0000000603  0.000092  0.000126  0.004193  0.000022
 12   -990.24544767  -0.0000003606  0.000015  0.000040  0.003248  0.000018
 13   -990.24544767  -0.0000000005  0.000007  0.000031  0.007547  0.000051
 14   -990.24544767  -0.0000000062  0.000005  0.000013  0.004624  0.000031
                  ***Gradient check signals convergence***
              ***Rediagonalizing the Fockian in SOSCF/NRSCF***

               *****************************************************
               *                     SUCCESS                       *
               *           SCF CONVERGED AFTER  15 CYCLES          *
               *****************************************************

Old exchange energy                            =    -28.432783665 Eh
New exchange energy                            =    -28.432784503 Eh
Exchange energy change after final integration =     -0.000000838 Eh
Total energy after final integration           =   -990.245448514 Eh
Final COS-X integration done in                =     3.453 sec

SMD CDS free energy correction energy :                 5.87343     Kcal/mol
Total Energy after SMD CDS correction =              -990.236088605 Eh

----------------
TOTAL SCF ENERGY
----------------

Total Energy       :         -990.23608860 Eh          -26945.69386 eV

Components:
Nuclear Repulsion  :          674.46936161 Eh           18353.24439 eV
Electronic Energy  :        -1664.70545021 Eh          -45298.93825 eV
One Electron Energy:        -2708.14861488 Eh          -73692.47026 eV
Two Electron Energy:         1043.44316467 Eh           28393.53201 eV
Max COSX asymmetry :            0.00000169 Eh               0.00005 eV
CPCM Dielectric    :           -0.12817998 Eh              -3.48795 eV
SMD CDS (Gcds)     :            0.00935991 Eh               0.25470 eV

Virial components:
Potential Energy   :        -1977.46918491 Eh          -53809.67215 eV
Kinetic Energy     :          987.23309631 Eh           26863.97829 eV
Virial Ratio       :            2.00304183


DFT components:
N(Alpha)           :       48.999937755855 electrons
N(Beta)            :       48.999937755855 electrons
N(Total)           :       97.999875511709 electrons
E(XC)              :      -73.338309960894 Eh       
DFET-embed. en.    :        0.000000000000 Eh       
CPCM Solvation Model Properties:
Surface-charge          :            0.94545268
Charge-correction       :           -0.00550687 Eh              -0.14985 eV
Free-energy (cav+disp)  :            0.00935991 Eh               0.25470 eV

---------------
SCF CONVERGENCE
---------------

  Last Energy change         ...   -4.7389e-09  Tolerance :   1.0000e-08
  Last MAX-Density change    ...    5.3291e-15  Tolerance :   1.0000e-07
  Last RMS-Density change    ...    4.7228e-17  Tolerance :   5.0000e-09
  Last Orbital Gradient      ...    1.9278e-06  Tolerance :   1.0000e-05
  Last Orbital Rotation      ...    1.8074e-06  Tolerance :   1.0000e-05

             **** THE GBW FILE WAS UPDATED (structure_opt.gbw) ****
             **** DENSITY structure_opt.scfp WAS UPDATED ****
             **** ENERGY FILE WAS UPDATED (structure_opt.en.tmp) ****
             **** THE GBW FILE WAS UPDATED (structure_opt.gbw) ****
             **** DENSITY structure_opt.scfp WAS UPDATED ****
----------------
ORBITAL ENERGIES
----------------

  NO   OCC          E(Eh)            E(eV) 
   0   2.0000     -88.720200     -2414.1994 
   1   2.0000     -24.793319      -674.6605 
   2   2.0000     -19.275676      -524.5178 
   3   2.0000     -19.243989      -523.6556 
   4   2.0000     -14.669897      -399.1882 
   5   2.0000     -14.435515      -392.8103 
   6   2.0000     -10.437690      -284.0240 
   7   2.0000     -10.364146      -282.0227 
   8   2.0000     -10.338167      -281.3158 
   9   2.0000     -10.321163      -280.8531 
  10   2.0000     -10.290458      -280.0176 
  11   2.0000     -10.235970      -278.5349 
  12   2.0000      -7.916084      -215.4076 
  13   2.0000      -5.879227      -159.9819 
  14   2.0000      -5.871838      -159.7808 
  15   2.0000      -5.871838      -159.7808 
  16   2.0000      -1.396355       -37.9968 
  17   2.0000      -1.348298       -36.6891 
  18   2.0000      -1.151559       -31.3355 
  19   2.0000      -1.109238       -30.1839 
  20   2.0000      -1.008423       -27.4406 
  21   2.0000      -0.943382       -25.6707 
  22   2.0000      -0.874004       -23.7829 
  23   2.0000      -0.836277       -22.7563 
  24   2.0000      -0.796648       -21.6779 
  25   2.0000      -0.769190       -20.9307 
  26   2.0000      -0.706014       -19.2116 
  27   2.0000      -0.686586       -18.6829 
  28   2.0000      -0.669396       -18.2152 
  29   2.0000      -0.665214       -18.1014 
  30   2.0000      -0.661783       -18.0080 
  31   2.0000      -0.633306       -17.2331 
  32   2.0000      -0.620368       -16.8811 
  33   2.0000      -0.615226       -16.7411 
  34   2.0000      -0.563802       -15.3418 
  35   2.0000      -0.537092       -14.6150 
  36   2.0000      -0.527912       -14.3652 
  37   2.0000      -0.527897       -14.3648 
  38   2.0000      -0.494655       -13.4602 
  39   2.0000      -0.494148       -13.4465 
  40   2.0000      -0.456167       -12.4129 
  41   2.0000      -0.432557       -11.7705 
  42   2.0000      -0.421726       -11.4757 
  43   2.0000      -0.416439       -11.3319 
  44   2.0000      -0.408003       -11.1023 
  45   2.0000      -0.390809       -10.6345 
  46   2.0000      -0.384900       -10.4737 
  47   2.0000      -0.259032        -7.0486 
  48   2.0000      -0.258987        -7.0474 
  49   0.0000      -0.064816        -1.7637 
  50   0.0000       0.022721         0.6183 
  51   0.0000       0.051257         1.3948 
  52   0.0000       0.055568         1.5121 
  53   0.0000       0.060371         1.6428 
  54   0.0000       0.067697         1.8421 
  55   0.0000       0.073087         1.9888 
  56   0.0000       0.088222         2.4007 
  57   0.0000       0.090351         2.4586 
  58   0.0000       0.091455         2.4886 
  59   0.0000       0.100181         2.7261 
  60   0.0000       0.111749         3.0409 
  61   0.0000       0.119834         3.2608 
  62   0.0000       0.125037         3.4024 
  63   0.0000       0.130494         3.5509 
  64   0.0000       0.135018         3.6740 
  65   0.0000       0.142311         3.8725 
  66   0.0000       0.157569         4.2877 
  67   0.0000       0.160760         4.3745 
  68   0.0000       0.164951         4.4886 
  69   0.0000       0.166598         4.5333 
  70   0.0000       0.168867         4.5951 
  71   0.0000       0.173650         4.7252 
  72   0.0000       0.175722         4.7816 
  73   0.0000       0.179883         4.8949 
  74   0.0000       0.180760         4.9187 
  75   0.0000       0.182962         4.9786 
  76   0.0000       0.192648         5.2422 
  77   0.0000       0.194674         5.2973 
  78   0.0000       0.199519         5.4292 
  79   0.0000       0.204603         5.5675 
  80   0.0000       0.210143         5.7183 
  81   0.0000       0.219393         5.9700 
  82   0.0000       0.222059         6.0425 
  83   0.0000       0.222625         6.0579 
  84   0.0000       0.234967         6.3938 
  85   0.0000       0.240620         6.5476 
  86   0.0000       0.246782         6.7153 
  87   0.0000       0.260447         7.0871 
  88   0.0000       0.264625         7.2008 
  89   0.0000       0.268133         7.2963 
  90   0.0000       0.271608         7.3908 
  91   0.0000       0.278159         7.5691 
  92   0.0000       0.278520         7.5789 
  93   0.0000       0.283172         7.7055 
  94   0.0000       0.286899         7.8069 
  95   0.0000       0.296371         8.0647 
  96   0.0000       0.301018         8.1911 
  97   0.0000       0.316700         8.6178 
  98   0.0000       0.318598         8.6695 
  99   0.0000       0.328159         8.9297 
 100   0.0000       0.337123         9.1736 
 101   0.0000       0.338900         9.2219 
 102   0.0000       0.350223         9.5301 
 103   0.0000       0.355168         9.6646 
 104   0.0000       0.361906         9.8480 
 105   0.0000       0.366546         9.9742 
 106   0.0000       0.373119        10.1531 
 107   0.0000       0.375157        10.2085 
 108   0.0000       0.395576        10.7642 
 109   0.0000       0.405246        11.0273 
 110   0.0000       0.409961        11.1556 
 111   0.0000       0.418595        11.3906 
 112   0.0000       0.426963        11.6183 
 113   0.0000       0.437113        11.8944 
 114   0.0000       0.443747        12.0750 
 115   0.0000       0.454087        12.3563 
 116   0.0000       0.462345        12.5810 
 117   0.0000       0.465030        12.6541 
 118   0.0000       0.473648        12.8886 
 119   0.0000       0.480471        13.0743 
 120   0.0000       0.493301        13.4234 
 121   0.0000       0.501384        13.6434 
 122   0.0000       0.520636        14.1672 
 123   0.0000       0.528276        14.3751 
 124   0.0000       0.529089        14.3973 
 125   0.0000       0.551633        15.0107 
 126   0.0000       0.584358        15.9012 
 127   0.0000       0.612440        16.6653 
 128   0.0000       0.616923        16.7873 
 129   0.0000       0.621089        16.9007 
 130   0.0000       0.638441        17.3729 
 131   0.0000       0.649002        17.6603 
 132   0.0000       0.655873        17.8472 
 133   0.0000       0.657980        17.9045 
 134   0.0000       0.670033        18.2325 
 135   0.0000       0.700549        19.0629 
 136   0.0000       0.703834        19.1523 
 137   0.0000       0.725159        19.7326 
 138   0.0000       0.744168        20.2498 
 139   0.0000       0.770548        20.9677 
 140   0.0000       0.771189        20.9851 
 141   0.0000       0.778699        21.1895 
 142   0.0000       0.812493        22.1091 
 143   0.0000       0.826438        22.4885 
 144   0.0000       0.842569        22.9275 
 145   0.0000       0.852181        23.1890 
 146   0.0000       0.854313        23.2470 
 147   0.0000       0.875032        23.8108 
 148   0.0000       0.900521        24.5044 
 149   0.0000       0.914767        24.8921 
 150   0.0000       0.920754        25.0550 
 151   0.0000       0.935923        25.4678 
 152   0.0000       0.954476        25.9726 
 153   0.0000       0.954766        25.9805 
 154   0.0000       0.960506        26.1367 
 155   0.0000       0.975473        26.5440 
 156   0.0000       0.979843        26.6629 
 157   0.0000       0.984245        26.7827 
 158   0.0000       1.004231        27.3265 
 159   0.0000       1.004312        27.3287 
 160   0.0000       1.007408        27.4130 
 161   0.0000       1.035504        28.1775 
 162   0.0000       1.044412        28.4199 
 163   0.0000       1.064176        28.9577 
 164   0.0000       1.074575        29.2407 
 165   0.0000       1.080008        29.3885 
 166   0.0000       1.083643        29.4874 
 167   0.0000       1.140220        31.0270 
 168   0.0000       1.144505        31.1436 
 169   0.0000       1.155737        31.4492 
 170   0.0000       1.172945        31.9175 
 171   0.0000       1.190404        32.3925 
 172   0.0000       1.198915        32.6241 
 173   0.0000       1.212934        33.0056 
 174   0.0000       1.249772        34.0080 
 175   0.0000       1.262552        34.3558 
 176   0.0000       1.276580        34.7375 
 177   0.0000       1.279234        34.8097 
 178   0.0000       1.279659        34.8213 
 179   0.0000       1.293632        35.2015 
 180   0.0000       1.299799        35.3693 
 181   0.0000       1.356922        36.9237 
 182   0.0000       1.397817        38.0365 
 183   0.0000       1.407269        38.2937 
 184   0.0000       1.471021        40.0285 
 185   0.0000       1.524617        41.4869 
 186   0.0000       1.547462        42.1086 
 187   0.0000       1.586348        43.1667 
 188   0.0000       1.589571        43.2544 
 189   0.0000       1.589864        43.2624 
 190   0.0000       1.618073        44.0300 
 191   0.0000       1.632375        44.4192 
 192   0.0000       1.655539        45.0495 
 193   0.0000       1.657424        45.1008 
 194   0.0000       1.693631        46.0860 
 195   0.0000       1.694624        46.1131 
 196   0.0000       1.704816        46.3904 
 197   0.0000       1.716310        46.7032 
 198   0.0000       1.749039        47.5938 
 199   0.0000       1.761298        47.9273 
 200   0.0000       1.786912        48.6243 
 201   0.0000       1.809786        49.2468 
 202   0.0000       1.810400        49.2635 
 203   0.0000       1.814678        49.3799 
 204   0.0000       1.843607        50.1671 
 205   0.0000       1.849061        50.3155 
 206   0.0000       1.869135        50.8618 
 207   0.0000       1.910261        51.9809 
 208   0.0000       1.934520        52.6410 
 209   0.0000       1.947145        52.9845 
 210   0.0000       1.971507        53.6474 
 211   0.0000       1.973464        53.7007 
 212   0.0000       1.990888        54.1748 
 213   0.0000       2.010875        54.7187 
 214   0.0000       2.032037        55.2945 
 215   0.0000       2.045482        55.6604 
 216   0.0000       2.053433        55.8767 
 217   0.0000       2.110683        57.4346 
 218   0.0000       2.141041        58.2607 
 219   0.0000       2.149606        58.4938 
 220   0.0000       2.168178        58.9991 
 221   0.0000       2.173818        59.1526 
 222   0.0000       2.176806        59.2339 
 223   0.0000       2.206901        60.0528 
 224   0.0000       2.292743        62.3887 
 225   0.0000       2.323985        63.2388 
 226   0.0000       2.332138        63.4607 
 227   0.0000       2.332618        63.4738 
 228   0.0000       2.400872        65.3310 
 229   0.0000       2.430267        66.1309 
 230   0.0000       2.496267        67.9269 
 231   0.0000       2.563861        69.7662 
 232   0.0000       2.591795        70.5263 
 233   0.0000       2.595852        70.6367 
 234   0.0000       2.605339        70.8949 
 235   0.0000       2.627216        71.4902 
 236   0.0000       2.659897        72.3795 
 237   0.0000       2.660858        72.4056 
 238   0.0000       2.673364        72.7459 
 239   0.0000       2.674493        72.7767 
 240   0.0000       2.693611        73.2969 
 241   0.0000       2.774957        75.5104 
 242   0.0000       2.785305        75.7920 
 243   0.0000       2.828953        76.9797 
 244   0.0000       2.840763        77.3011 
 245   0.0000       2.858572        77.7857 
 246   0.0000       2.868435        78.0541 
 247   0.0000       2.883395        78.4612 
 248   0.0000       2.894941        78.7753 
 249   0.0000       2.901700        78.9593 
 250   0.0000       2.931856        79.7799 
 251   0.0000       2.937313        79.9283 
 252   0.0000       2.960351        80.5552 
 253   0.0000       2.976712        81.0005 
 254   0.0000       2.986936        81.2787 
 255   0.0000       3.002596        81.7048 
 256   0.0000       3.010559        81.9215 
 257   0.0000       3.097717        84.2932 
 258   0.0000       3.153298        85.8056 
 259   0.0000       3.188711        86.7692 
 260   0.0000       3.268843        88.9497 
 261   0.0000       3.307486        90.0013 
 262   0.0000       3.307859        90.0114 
 263   0.0000       3.341523        90.9275 
 264   0.0000       3.368435        91.6598 
 265   0.0000       3.454417        93.9995 
 266   0.0000       3.498085        95.1877 
 267   0.0000       3.559339        96.8545 
 268   0.0000       3.594728        97.8175 
 269   0.0000       3.680860       100.1613 
 270   0.0000       3.703738       100.7838 
 271   0.0000       3.753920       102.1494 
 272   0.0000       3.853554       104.8605 
 273   0.0000       3.884425       105.7006 
 274   0.0000       3.888382       105.8082 
 275   0.0000       3.892038       105.9078 
 276   0.0000       3.903257       106.2130 
 277   0.0000       3.924986       106.8043 
 278   0.0000       4.013501       109.2129 
 279   0.0000       4.060033       110.4791 
 280   0.0000       4.119993       112.1107 
 281   0.0000       4.144101       112.7667 
 282   0.0000       4.169098       113.4469 
 283   0.0000       4.405717       119.8856 
 284   0.0000       4.482059       121.9630 
 285   0.0000       4.503885       122.5570 
 286   0.0000       4.760764       129.5470 
 287   0.0000       4.942683       134.4972 
 288   0.0000       5.071684       138.0075 
 289   0.0000       5.099566       138.7663 
 290   0.0000       5.190798       141.2488 
 291   0.0000       5.220155       142.0476 
 292   0.0000       5.314729       144.6211 
 293   0.0000       5.698427       155.0621 
 294   0.0000       6.130647       166.8234 
 295   0.0000       6.425825       174.8556 
 296   0.0000       6.539610       177.9518 
 297   0.0000       6.841549       186.1680 
 298   0.0000       7.978394       217.1032 
 299   0.0000      17.547290       477.4860 
 300   0.0000      17.549289       477.5404 
 301   0.0000      17.639073       479.9836 
 302   0.0000      23.652995       643.6307 
 303   0.0000      23.890459       650.0925 
 304   0.0000      23.984116       652.6410 
 305   0.0000      24.030601       653.9059 
 306   0.0000      24.071258       655.0122 
 307   0.0000      24.181745       658.0187 
 308   0.0000      35.375313       962.6112 
 309   0.0000      35.657223       970.2824 
 310   0.0000      49.900098      1357.8507 
 311   0.0000      49.963465      1359.5750 
 312   0.0000      66.793189      1817.5351 
 313   0.0000     188.967444      5142.0656 

--------------------
FRAGMENT INFORMATION
--------------------
Fragment  1:    0   1   2   3   4   5 
Fragment  2:    6   7   8   9  10  11  12 
Fragment  3:   13  14  15  16 
Fragment  4:   17 


                    ********************************
                    * MULLIKEN POPULATION ANALYSIS *
                    ********************************

-------------------------
MULLIKEN FRAGMENT CHARGES
-------------------------
 Fragment   0 :  -0.443561
 Fragment   1 :   0.443018
 Fragment   2 :  -0.026695
 Fragment   3 :  -0.972762
Sum of fragment charges:   -1.0000000

---------------------------------
MULLIKEN FRAGMENT OVERLAP CHARGES
---------------------------------
                  0          1          2          3    
      0      21.315104   0.605094  -0.000256  -0.000092
      1       0.605094  34.987797   0.000055   0.000236
      2      -0.000256   0.000055  11.647588  -0.666190
      3      -0.000092   0.000236  -0.666190  17.305785

-----------------------
MULLIKEN ATOMIC CHARGES
-----------------------
   0 C :   -0.078683
   1 N :   -0.179059
   2 C :   -0.315808
   3 C :   -0.236704
   4 C :    0.417194
   5 C :   -0.050502
   6 N :   -0.064353
   7 O :   -0.055835
   8 O :   -0.237551
   9 F :   -0.102094
  10 H :    0.294855
  11 H :    0.281644
  12 H :    0.326351
  13 C :   -0.407798
  14 H :    0.126664
  15 H :    0.127327
  16 H :    0.127111
  17 S :   -0.972762
Sum of atomic charges:   -1.0000000

--------------------------------
MULLIKEN REDUCED ORBITAL CHARGES
--------------------------------
  0 C s       :     3.318527  s :     3.318527
      pz      :     0.676283  p :     2.599707
      px      :     0.979963
      py      :     0.943462
      dz2     :     0.052760  d :     0.160448
      dxz     :     0.048838
      dyz     :     0.028435
      dx2y2   :     0.013770
      dxy     :     0.016646
  1 N s       :     3.605776  s :     3.605776
      pz      :     1.141618  p :     3.542758
      px      :     1.239236
      py      :     1.161904
      dz2     :     0.008167  d :     0.030525
      dxz     :     0.007240
      dyz     :     0.004756
      dx2y2   :     0.005504
      dxy     :     0.004859
  2 C s       :     3.392315  s :     3.392315
      pz      :     0.813633  p :     2.839343
      px      :     1.171432
      py      :     0.854278
      dz2     :     0.023582  d :     0.084150
      dxz     :     0.032197
      dyz     :     0.014798
      dx2y2   :     0.007221
      dxy     :     0.006352
  3 C s       :     3.197644  s :     3.197644
      pz      :     1.148249  p :     2.985902
      px      :     0.869776
      py      :     0.967877
      dz2     :     0.015293  d :     0.053159
      dxz     :     0.017413
      dyz     :     0.005094
      dx2y2   :     0.008211
      dxy     :     0.007147
  4 C s       :     2.525604  s :     2.525604
      pz      :     0.900943  p :     3.000106
      px      :     1.251177
      py      :     0.847986
      dz2     :     0.016548  d :     0.057095
      dxz     :     0.015859
      dyz     :     0.010567
      dx2y2   :     0.007217
      dxy     :     0.006904
  5 C s       :     3.286894  s :     3.286894
      pz      :     1.090506  p :     2.690466
      px      :     0.476866
      py      :     1.123095
      dz2     :     0.013626  d :     0.073141
      dxz     :     0.029769
      dyz     :     0.010344
      dx2y2   :     0.011216
      dxy     :     0.008185
  6 N s       :     3.582129  s :     3.582129
      pz      :     1.059295  p :     3.373230
      px      :     1.212303
      py      :     1.101632
      dz2     :     0.027719  d :     0.108994
      dxz     :     0.039359
      dyz     :     0.023078
      dx2y2   :     0.008551
      dxy     :     0.010287
  7 O s       :     3.780344  s :     3.780344
      pz      :     1.027585  p :     4.256794
      px      :     1.828482
      py      :     1.400727
      dz2     :     0.009710  d :     0.018697
      dxz     :     0.003512
      dyz     :     0.005306
      dx2y2   :     0.000102
      dxy     :     0.000067
  8 O s       :     3.823606  s :     3.823606
      pz      :     1.625057  p :     4.401829
      px      :     1.218201
      py      :     1.558571
      dz2     :     0.001059  d :     0.012115
      dxz     :     0.004900
      dyz     :     0.000879
      dx2y2   :     0.003118
      dxy     :     0.002159
  9 F s       :     3.918729  s :     3.918729
      pz      :     1.389160  p :     5.178034
      px      :     1.915850
      py      :     1.873023
      dz2     :     0.003097  d :     0.005332
      dxz     :     0.000997
      dyz     :     0.001201
      dx2y2   :     0.000027
      dxy     :     0.000009
 10 H s       :     0.681242  s :     0.681242
      pz      :     0.005482  p :     0.023902
      px      :     0.014125
      py      :     0.004295
 11 H s       :     0.693391  s :     0.693391
      pz      :     0.016376  p :     0.024965
      px      :     0.003655
      py      :     0.004934
 12 H s       :     0.648127  s :     0.648127
      pz      :     0.007744  p :     0.025522
      px      :     0.013376
      py      :     0.004402
 13 C s       :     3.267408  s :     3.267408
      pz      :     1.052186  p :     3.087761
      px      :     1.052591
      py      :     0.982984
      dz2     :     0.006332  d :     0.052629
      dxz     :     0.008879
      dyz     :     0.015761
      dx2y2   :     0.014471
      dxy     :     0.007186
 14 H s       :     0.850640  s :     0.850640
      pz      :     0.005427  p :     0.022696
      px      :     0.012625
      py      :     0.004644
 15 H s       :     0.849932  s :     0.849932
      pz      :     0.009812  p :     0.022740
      px      :     0.007437
      py      :     0.005490
 16 H s       :     0.850165  s :     0.850165
      pz      :     0.009489  p :     0.022724
      px      :     0.004740
      py      :     0.008495
 17 S s       :     6.021850  s :     6.021850
      pz      :     3.893555  p :    10.919507
      px      :     3.903119
      py      :     3.122834
      dz2     :     0.003901  d :     0.031405
      dxz     :     0.001255
      dyz     :     0.008109
      dx2y2   :     0.010757
      dxy     :     0.007384


                     *******************************
                     * LOEWDIN POPULATION ANALYSIS *
                     *******************************

------------------------
LOEWDIN FRAGMENT CHARGES
------------------------
 Fragment   0 :   0.057890
 Fragment   1 :  -0.058176
 Fragment   2 :  -0.355361
 Fragment   3 :  -0.644353

----------------------------
LOEWDIN FRAGMENT BOND ORDERS
----------------------------
                  0          1          2          3    
      0      56.961868   6.779162   0.000231   0.000893
      1       6.779162  43.787599   0.000028   0.000167
      2       0.000231   0.000028  15.419401   1.743189
      3       0.000893   0.000167   1.743189  16.644353

----------------------
LOEWDIN ATOMIC CHARGES
----------------------
   0 C :    0.111231
   1 N :   -0.111312
   2 C :    0.077377
   3 C :   -0.033732
   4 C :    0.078117
   5 C :   -0.063791
   6 N :    0.241484
   7 O :   -0.154315
   8 O :   -0.338972
   9 F :   -0.078112
  10 H :    0.087019
  11 H :    0.084568
  12 H :    0.100152
  13 C :   -0.358580
  14 H :    0.001243
  15 H :    0.000886
  16 H :    0.001091
  17 S :   -0.644353

-------------------------------
LOEWDIN REDUCED ORBITAL CHARGES
-------------------------------
  0 C s       :     2.743839  s :     2.743839
      pz      :     0.849333  p :     2.815801
      px      :     1.080584
      py      :     0.885884
      dz2     :     0.112521  d :     0.329129
      dxz     :     0.100709
      dyz     :     0.050381
      dx2y2   :     0.033890
      dxy     :     0.031629
  1 N s       :     3.151292  s :     3.151292
      pz      :     1.301165  p :     3.903180
      px      :     1.416787
      py      :     1.185227
      dz2     :     0.017386  d :     0.056840
      dxz     :     0.015721
      dyz     :     0.007788
      dx2y2   :     0.009546
      dxy     :     0.006399
  2 C s       :     2.786912  s :     2.786912
      pz      :     1.032955  p :     2.953870
      px      :     1.096506
      py      :     0.824410
      dz2     :     0.060305  d :     0.181841
      dxz     :     0.069053
      dyz     :     0.027975
      dx2y2   :     0.014012
      dxy     :     0.010496
  3 C s       :     2.781240  s :     2.781240
      pz      :     1.081376  p :     3.128137
      px      :     1.092114
      py      :     0.954648
      dz2     :     0.034116  d :     0.124355
      dxz     :     0.045070
      dyz     :     0.008014
      dx2y2   :     0.022213
      dxy     :     0.014942
  4 C s       :     2.779242  s :     2.779242
      pz      :     1.065798  p :     3.014343
      px      :     1.108292
      py      :     0.840253
      dz2     :     0.040909  d :     0.128298
      dxz     :     0.039161
      dyz     :     0.021254
      dx2y2   :     0.015053
      dxy     :     0.011921
  5 C s       :     2.757906  s :     2.757906
      pz      :     1.088489  p :     3.125560
      px      :     0.957257
      py      :     1.079813
      dz2     :     0.039906  d :     0.180325
      dxz     :     0.071781
      dyz     :     0.019838
      dx2y2   :     0.031420
      dxy     :     0.017380
  6 N s       :     3.052016  s :     3.052016
      pz      :     1.205962  p :     3.500137
      px      :     1.215122
      py      :     1.079054
      dz2     :     0.060435  d :     0.206362
      dxz     :     0.076187
      dyz     :     0.035699
      dx2y2   :     0.017513
      dxy     :     0.016527
  7 O s       :     3.581212  s :     3.581212
      pz      :     1.283752  p :     4.540793
      px      :     1.838856
      py      :     1.418185
      dz2     :     0.020435  d :     0.032310
      dxz     :     0.005156
      dyz     :     0.006528
      dx2y2   :     0.000119
      dxy     :     0.000071
  8 O s       :     3.667372  s :     3.667372
      pz      :     1.709923  p :     4.651119
      px      :     1.369851
      py      :     1.571344
      dz2     :     0.001545  d :     0.020481
      dxz     :     0.009263
      dyz     :     0.001173
      dx2y2   :     0.005711
      dxy     :     0.002789
  9 F s       :     3.714910  s :     3.714910
      pz      :     1.535219  p :     5.355832
      px      :     1.934340
      py      :     1.886273
      dz2     :     0.004766  d :     0.007370
      dxz     :     0.001184
      dyz     :     0.001375
      dx2y2   :     0.000037
      dxy     :     0.000009
 10 H s       :     0.842582  s :     0.842582
      pz      :     0.016677  p :     0.070400
      px      :     0.042306
      py      :     0.011417
 11 H s       :     0.842984  s :     0.842984
      pz      :     0.047838  p :     0.072447
      px      :     0.011208
      py      :     0.013401
 12 H s       :     0.826624  s :     0.826624
      pz      :     0.023099  p :     0.073224
      px      :     0.038707
      py      :     0.011418
 13 C s       :     2.858227  s :     2.858227
      pz      :     1.121926  p :     3.393475
      px      :     1.121329
      py      :     1.150220
      dz2     :     0.012446  d :     0.106878
      dxz     :     0.017103
      dyz     :     0.032263
      dx2y2   :     0.030294
      dxy     :     0.014772
 14 H s       :     0.927149  s :     0.927149
      pz      :     0.016311  p :     0.071608
      px      :     0.040808
      py      :     0.014490
 15 H s       :     0.927217  s :     0.927217
      pz      :     0.031359  p :     0.071897
      px      :     0.022840
      py      :     0.017698
 16 H s       :     0.927020  s :     0.927020
      pz      :     0.029701  p :     0.071889
      px      :     0.013844
      py      :     0.028344
 17 S s       :     5.613354  s :     5.613354
      pz      :     3.858667  p :    10.993854
      px      :     3.866086
      py      :     3.269101
      dz2     :     0.004615  d :     0.037145
      dxz     :     0.001454
      dyz     :     0.009546
      dx2y2   :     0.012853
      dxy     :     0.008678


                      *****************************
                      * MAYER POPULATION ANALYSIS *
                      *****************************

  NA   - Mulliken gross atomic population
  ZA   - Total nuclear charge
  QA   - Mulliken gross atomic charge
  VA   - Mayer's total valence
  BVA  - Mayer's bonded valence
  FA   - Mayer's free valence

  ATOM       NA         ZA         QA         VA         BVA        FA
  0 C      6.0787     6.0000    -0.0787     4.3626     4.3626     0.0000
  1 N      7.1791     7.0000    -0.1791     2.6949     2.6949    -0.0000
  2 C      6.3158     6.0000    -0.3158     4.0015     4.0015    -0.0000
  3 C      6.2367     6.0000    -0.2367     4.2949     4.2949    -0.0000
  4 C      5.5828     6.0000     0.4172     4.1795     4.1795    -0.0000
  5 C      6.0505     6.0000    -0.0505     3.3124     3.3124    -0.0000
  6 N      7.0644     7.0000    -0.0644     3.9175     3.9175    -0.0000
  7 O      8.0558     8.0000    -0.0558     2.2113     2.2113    -0.0000
  8 O      8.2376     8.0000    -0.2376     1.9978     1.9978     0.0000
  9 F      9.1021     9.0000    -0.1021     0.9620     0.9620     0.0000
 10 H      0.7051     1.0000     0.2949     0.8741     0.8741    -0.0000
 11 H      0.7184     1.0000     0.2816     0.9018     0.9018    -0.0000
 12 H      0.6736     1.0000     0.3264     0.8341     0.8341    -0.0000
 13 C      6.4078     6.0000    -0.4078     3.5736     3.5736     0.0000
 14 H      0.8733     1.0000     0.1267     0.9419     0.9419     0.0000
 15 H      0.8727     1.0000     0.1273     0.9410     0.9410     0.0000
 16 H      0.8729     1.0000     0.1271     0.9429     0.9429    -0.0000
 17 S     16.9728    16.0000    -0.9728     0.5971     0.5971    -0.0000

  Mayer bond orders larger than 0.100000
B(  0-C ,  1-N ) :   1.3037 B(  0-C ,  2-C ) :   0.2063 B(  0-C ,  3-C ) :   0.1329 
B(  0-C ,  4-C ) :   0.3024 B(  0-C ,  5-C ) :   1.1985 B(  0-C ,  6-N ) :  -0.1817 
B(  0-C ,  9-F ) :   1.4130 B(  1-N ,  2-C ) :   1.1955 B(  1-N ,  5-C ) :   0.1566 
B(  2-C ,  3-C ) :   1.5725 B(  2-C , 10-H ) :   0.8837 B(  3-C ,  4-C ) :   1.4962 
B(  3-C ,  8-O ) :   0.1343 B(  3-C , 11-H ) :   0.8481 B(  4-C ,  5-C ) :   1.5947 
B(  4-C ,  6-N ) :  -0.1404 B(  4-C ,  8-O ) :   0.1652 B(  4-C ,  9-F ) :  -0.1161 
B(  4-C , 12-H ) :   0.7524 B(  5-C ,  6-N ) :   0.7440 B(  5-C ,  8-O ) :  -0.1632 
B(  5-C ,  9-F ) :  -0.3650 B(  5-C , 12-H ) :   0.1195 B(  6-N ,  7-O ) :   1.8625 
B(  6-N ,  8-O ) :   1.6543 B(  7-O ,  8-O ) :   0.2619 B( 13-C , 14-H ) :   0.9829 
B( 13-C , 15-H ) :   0.9825 B( 13-C , 16-H ) :   0.9807 B( 13-C , 17-S ) :   0.6281 


-------
TIMINGS
-------

Total SCF time: 0 days 0 hours 0 min 39 sec 

Total time                  ....      39.550 sec
Sum of individual times     ....      38.323 sec  ( 96.9%)

Fock matrix formation       ....      35.573 sec  ( 89.9%)
  Split-RI-J                ....       2.456 sec  (  6.9% of F)
  Chain of spheres X        ....      22.499 sec  ( 63.2% of F)
  XC integration            ....       5.873 sec  ( 16.5% of F)
    Basis function eval.    ....       0.459 sec  (  7.8% of XC)
    Density eval.           ....       0.907 sec  ( 15.4% of XC)
[...]
 290   0.0000       5.206184       141.6675 
 291   0.0000       5.282238       143.7370 
 292   0.0000       5.370458       146.1376 
 293   0.0000       5.848865       159.1557 
 294   0.0000       6.340651       172.5379 
 295   0.0000       6.434074       175.0801 
 296   0.0000       6.550594       178.2507 
 297   0.0000       6.862868       186.7481 
 298   0.0000       7.978416       217.1037 
 299   0.0000      17.547293       477.4861 
 300   0.0000      17.549299       477.5407 
 301   0.0000      17.639187       479.9867 
 302   0.0000      23.704266       645.0259 
 303   0.0000      23.954524       651.8357 
 304   0.0000      24.019989       653.6171 
 305   0.0000      24.030144       653.8935 
 306   0.0000      24.134338       656.7287 
 307   0.0000      24.245924       659.7651 
 308   0.0000      35.451586       964.6867 
 309   0.0000      35.737123       972.4566 
 310   0.0000      49.923922      1358.4990 
 311   0.0000      50.030826      1361.4080 
 312   0.0000      66.806893      1817.9080 
 313   0.0000     188.967465      5142.0661 

--------------------
FRAGMENT INFORMATION
--------------------
Fragment  1:    0   1   2   3   4   5 
Fragment  2:    6   7   8   9  10  11  12 
Fragment  3:   13  14  15  16 
Fragment  4:   17 


                    ********************************
                    * MULLIKEN POPULATION ANALYSIS *
                    ********************************

-------------------------
MULLIKEN FRAGMENT CHARGES
-------------------------
 Fragment   0 :  -0.481016
 Fragment   1 :   0.480466
 Fragment   2 :  -0.026789
 Fragment   3 :  -0.972661
Sum of fragment charges:   -1.0000000

---------------------------------
MULLIKEN FRAGMENT OVERLAP CHARGES
---------------------------------
                  0          1          2          3    
      0      18.777439   0.492469  -0.000253  -0.000154
      1       0.492469  35.055744   0.000054   0.000220
      2      -0.000253   0.000054  11.646905  -0.664319
      3      -0.000154   0.000220  -0.664319  17.304788

-----------------------
MULLIKEN ATOMIC CHARGES
-----------------------
   0 C :   -0.044462
   1 N :   -0.171236
   2 C :   -0.299155
   3 C :   -0.310766
   4 C :    0.498945
   5 C :   -0.154341
   6 N :   -0.001052
   7 O :   -0.167312
   8 O :   -0.116481
   9 F :   -0.119535
  10 H :    0.282923
  11 H :    0.278875
  12 H :    0.323048
  13 C :   -0.407972
  14 H :    0.126949
  15 H :    0.127229
  16 H :    0.127005
  17 S :   -0.972661
Sum of atomic charges:   -1.0000000

--------------------------------
MULLIKEN REDUCED ORBITAL CHARGES
--------------------------------
  0 C s       :     3.275939  s :     3.275939
      pz      :     0.670603  p :     2.598604
      px      :     0.979604
      py      :     0.948397
      dz2     :     0.057293  d :     0.169919
      dxz     :     0.050193
      dyz     :     0.029476
      dx2y2   :     0.014703
      dxy     :     0.018253
  1 N s       :     3.587237  s :     3.587237
      pz      :     1.147951  p :     3.549491
      px      :     1.250453
      py      :     1.151087
      dz2     :     0.008681  d :     0.034509
      dxz     :     0.008690
      dyz     :     0.005264
      dx2y2   :     0.006052
      dxy     :     0.005821
  2 C s       :     3.329686  s :     3.329686
      pz      :     0.826408  p :     2.880520
      px      :     1.179531
      py      :     0.874581
      dz2     :     0.025077  d :     0.088949
      dxz     :     0.033550
      dyz     :     0.015925
      dx2y2   :     0.007852
      dxy     :     0.006546
  3 C s       :     3.252442  s :     3.252442
      pz      :     1.148762  p :     3.002687
      px      :     0.884065
      py      :     0.969861
      dz2     :     0.015909  d :     0.055637
      dxz     :     0.018336
      dyz     :     0.005700
      dx2y2   :     0.008166
      dxy     :     0.007526
  4 C s       :     2.407808  s :     2.407808
      pz      :     0.929671  p :     3.033585
      px      :     1.251029
      py      :     0.852884
      dz2     :     0.017281  d :     0.059662
      dxz     :     0.016015
      dyz     :     0.011352
      dx2y2   :     0.007820
      dxy     :     0.007194
  5 C s       :     3.344271  s :     3.344271
      pz      :     1.112155  p :     2.736521
      px      :     0.499713
      py      :     1.124652
      dz2     :     0.013103  d :     0.073549
      dxz     :     0.030911
      dyz     :     0.010366
      dx2y2   :     0.010968
      dxy     :     0.008201
  6 N s       :     3.480131  s :     3.480131
      pz      :     1.041188  p :     3.382045
      px      :     1.232061
      py      :     1.108796
      dz2     :     0.038002  d :     0.138876
      dxz     :     0.045118
      dyz     :     0.029043
      dx2y2   :     0.011995
      dxy     :     0.014718
  7 O s       :     3.806819  s :     3.806819
      pz      :     1.023939  p :     4.342328
      px      :     1.839339
      py      :     1.479050
      dz2     :     0.009764  d :     0.018164
      dxz     :     0.003254
      dyz     :     0.004995
      dx2y2   :     0.000093
      dxy     :     0.000059
  8 O s       :     3.782948  s :     3.782948
      pz      :     1.553526  p :     4.313393
      px      :     1.328093
      py      :     1.431774
      dz2     :     0.002411  d :     0.020140
      dxz     :     0.007378
      dyz     :     0.002074
      dx2y2   :     0.004236
      dxy     :     0.004040
  9 F s       :     3.918041  s :     3.918041
      pz      :     1.399718  p :     5.196266
      px      :     1.918299
      py      :     1.878248
      dz2     :     0.003045  d :     0.005228
      dxz     :     0.000974
      dyz     :     0.001170
      dx2y2   :     0.000029
      dxy     :     0.000010
 10 H s       :     0.693782  s :     0.693782
      pz      :     0.004555  p :     0.023295
      px      :     0.014387
      py      :     0.004353
 11 H s       :     0.695936  s :     0.695936
      pz      :     0.016418  p :     0.025189
      px      :     0.003787
      py      :     0.004984
 12 H s       :     0.651110  s :     0.651110
      pz      :     0.007366  p :     0.025842
      px      :     0.014015
      py      :     0.004461
 13 C s       :     3.267566  s :     3.267566
      pz      :     1.052135  p :     3.087776
      px      :     1.051843
      py      :     0.983799
      dz2     :     0.006755  d :     0.052630
      dxz     :     0.008335
      dyz     :     0.015731
      dx2y2   :     0.014672
      dxy     :     0.007137
 14 H s       :     0.850324  s :     0.850324
      pz      :     0.005303  p :     0.022726
      px      :     0.012762
      py      :     0.004662
 15 H s       :     0.850059  s :     0.850059
      pz      :     0.010048  p :     0.022711
      px      :     0.007193
      py      :     0.005471
 16 H s       :     0.850299  s :     0.850299
      pz      :     0.009381  p :     0.022697
      px      :     0.004754
      py      :     0.008561
 17 S s       :     6.021708  s :     6.021708
      pz      :     3.894375  p :    10.919544
      px      :     3.892910
      py      :     3.132259
      dz2     :     0.003927  d :     0.031409
      dxz     :     0.001315
      dyz     :     0.007994
      dx2y2   :     0.010440
      dxy     :     0.007733


                     *******************************
                     * LOEWDIN POPULATION ANALYSIS *
                     *******************************

------------------------
LOEWDIN FRAGMENT CHARGES
------------------------
 Fragment   0 :   0.031724
 Fragment   1 :  -0.032016
 Fragment   2 :  -0.355381
 Fragment   3 :  -0.644326

----------------------------
LOEWDIN FRAGMENT BOND ORDERS
----------------------------
                  0          1          2          3    
      0      57.200709   6.725667   0.000232   0.000887
      1       6.725667  44.208881   0.000029   0.000169
      2       0.000232   0.000029  15.419231   1.743260
      3       0.000887   0.000169   1.743260  16.644326

----------------------
LOEWDIN ATOMIC CHARGES
----------------------
   0 C :    0.081976
   1 N :   -0.081384
   2 C :    0.056437
   3 C :   -0.034027
   4 C :    0.073253
   5 C :   -0.064531
   6 N :    0.202795
   7 O :   -0.220086
   8 O :   -0.194305
   9 F :   -0.088917
  10 H :    0.083303
  11 H :    0.085711
  12 H :    0.099483
  13 C :   -0.358700
  14 H :    0.001015
  15 H :    0.001061
  16 H :    0.001243
  17 S :   -0.644326

-------------------------------
LOEWDIN REDUCED ORBITAL CHARGES
-------------------------------
  0 C s       :     2.731274  s :     2.731274
      pz      :     0.851684  p :     2.836104
      px      :     1.095053
      py      :     0.889368
      dz2     :     0.121992  d :     0.350646
      dxz     :     0.103689
      dyz     :     0.052297
      dx2y2   :     0.037177
      dxy     :     0.035492
  1 N s       :     3.108727  s :     3.108727
      pz      :     1.298537  p :     3.907699
      px      :     1.434573
      py      :     1.174589
      dz2     :     0.018895  d :     0.064958
      dxz     :     0.018514
      dyz     :     0.009161
      dx2y2   :     0.010570
      dxy     :     0.007817
  2 C s       :     2.774345  s :     2.774345
      pz      :     1.042363  p :     2.975520
      px      :     1.091919
      py      :     0.841237
      dz2     :     0.064025  d :     0.193698
      dxz     :     0.073038
      dyz     :     0.030674
      dx2y2   :     0.015114
      dxy     :     0.010846
  3 C s       :     2.772515  s :     2.772515
      pz      :     1.079508  p :     3.132039
      px      :     1.096284
      py      :     0.956247
      dz2     :     0.035214  d :     0.129474
      dxz     :     0.047096
      dyz     :     0.008925
      dx2y2   :     0.022300
      dxy     :     0.015939
  4 C s       :     2.769318  s :     2.769318
      pz      :     1.074824  p :     3.022653
      px      :     1.104006
      py      :     0.843824
      dz2     :     0.042705  d :     0.134775
      dxz     :     0.040342
      dyz     :     0.022995
      dx2y2   :     0.016160
      dxy     :     0.012575
  5 C s       :     2.753212  s :     2.753212
      pz      :     1.089656  p :     3.129359
      px      :     0.959740
      py      :     1.079964
      dz2     :     0.039540  d :     0.181959
      dxz     :     0.074025
      dyz     :     0.020204
      dx2y2   :     0.030603
      dxy     :     0.017588
  6 N s       :     2.997848  s :     2.997848
      pz      :     1.219834  p :     3.530649
      px      :     1.229892
      py      :     1.080922
      dz2     :     0.080487  d :     0.268708
      dxz     :     0.092498
      dyz     :     0.045978
      dx2y2   :     0.025652
      dxy     :     0.024093
  7 O s       :     3.574498  s :     3.574498
      pz      :     1.274830  p :     4.613965
      px      :     1.846889
      py      :     1.492246
      dz2     :     0.020497  d :     0.031623
      dxz     :     0.004796
      dyz     :     0.006155
      dx2y2   :     0.000112
      dxy     :     0.000063
  8 O s       :     3.548725  s :     3.548725
      pz      :     1.675899  p :     4.610310
      px      :     1.484505
      py      :     1.449905
      dz2     :     0.003663  d :     0.035271
      dxz     :     0.015190
      dyz     :     0.002841
      dx2y2   :     0.008234
      dxy     :     0.005342
  9 F s       :     3.713740  s :     3.713740
      pz      :     1.540026  p :     5.367923
      px      :     1.936967
      py      :     1.890930
      dz2     :     0.004686  d :     0.007254
      dxz     :     0.001174
      dyz     :     0.001344
      dx2y2   :     0.000039
      dxy     :     0.000010
 10 H s       :     0.848075  s :     0.848075
      pz      :     0.014247  p :     0.068623
      px      :     0.042612
      py      :     0.011764
 11 H s       :     0.842136  s :     0.842136
      pz      :     0.047404  p :     0.072153
      px      :     0.011358
      py      :     0.013391
 12 H s       :     0.827105  s :     0.827105
      pz      :     0.021626  p :     0.073412
      px      :     0.040247
      py      :     0.011540
 13 C s       :     2.858382  s :     2.858382
      pz      :     1.121719  p :     3.393452
      px      :     1.121915
      py      :     1.149818
      dz2     :     0.013303  d :     0.106866
      dxz     :     0.016008
      dyz     :     0.032180
      dx2y2   :     0.030614
      dxy     :     0.014762
 14 H s       :     0.927213  s :     0.927213
      pz      :     0.015891  p :     0.071772
      px      :     0.041346
      py      :     0.014535
 15 H s       :     0.927167  s :     0.927167
      pz      :     0.032145  p :     0.071772
      px      :     0.022017
      py      :     0.017610
 16 H s       :     0.926982  s :     0.926982
      pz      :     0.029323  p :     0.071775
      px      :     0.013895
      py      :     0.028557
 17 S s       :     5.613357  s :     5.613357
      pz      :     3.859304  p :    10.993818
      px      :     3.858238
      py      :     3.276275
      dz2     :     0.004647  d :     0.037151
      dxz     :     0.001525
      dyz     :     0.009409
      dx2y2   :     0.012460
      dxy     :     0.009111


                      *****************************
                      * MAYER POPULATION ANALYSIS *
                      *****************************

  NA   - Mulliken gross atomic population
  ZA   - Total nuclear charge
  QA   - Mulliken gross atomic charge
  VA   - Mayer's total valence
  BVA  - Mayer's bonded valence
  FA   - Mayer's free valence

  ATOM       NA         ZA         QA         VA         BVA        FA
  0 C      6.0445     6.0000    -0.0445     4.2793     4.2793     0.0000
  1 N      7.1712     7.0000    -0.1712     2.7160     2.7160    -0.0000
  2 C      6.2992     6.0000    -0.2992     4.0432     4.0432    -0.0000
  3 C      6.3108     6.0000    -0.3108     4.4526     4.4526    -0.0000
  4 C      5.5011     6.0000     0.4989     4.0706     4.0706     0.0000
  5 C      6.1543     6.0000    -0.1543     3.3523     3.3523    -0.0000
  6 N      7.0011     7.0000    -0.0011     4.0100     4.0100    -0.0000
  7 O      8.1673     8.0000    -0.1673     2.1248     2.1248     0.0000
  8 O      8.1165     8.0000    -0.1165     2.1978     2.1978     0.0000
  9 F      9.1195     9.0000    -0.1195     0.9239     0.9239    -0.0000
 10 H      0.7171     1.0000     0.2829     0.8763     0.8763     0.0000
 11 H      0.7211     1.0000     0.2789     0.9068     0.9068    -0.0000
 12 H      0.6770     1.0000     0.3230     0.8358     0.8358    -0.0000
 13 C      6.4080     6.0000    -0.4080     3.5739     3.5739    -0.0000
 14 H      0.8731     1.0000     0.1269     0.9417     0.9417    -0.0000
 15 H      0.8728     1.0000     0.1272     0.9411     0.9411     0.0000
 16 H      0.8730     1.0000     0.1270     0.9430     0.9430    -0.0000
 17 S     16.9727    16.0000    -0.9727     0.5974     0.5974     0.0000

  Mayer bond orders larger than 0.100000
B(  0-C ,  1-N ) :   1.3057 B(  0-C ,  2-C ) :   0.1869 B(  0-C ,  3-C ) :   0.1646 
B(  0-C ,  4-C ) :   0.2493 B(  0-C ,  5-C ) :   1.2356 B(  0-C ,  6-N ) :  -0.1844 
B(  0-C ,  7-O ) :   0.1015 B(  0-C ,  8-O ) :  -0.1116 B(  0-C ,  9-F ) :   1.3599 
B(  1-N ,  2-C ) :   1.1790 B(  1-N ,  5-C ) :   0.1785 B(  2-C ,  3-C ) :   1.6524 
B(  2-C ,  5-C ) :   0.1050 B(  2-C , 10-H ) :   0.8849 B(  3-C ,  4-C ) :   1.4262 
B(  3-C ,  5-C ) :   0.1166 B(  3-C ,  8-O ) :   0.1623 B(  3-C , 11-H ) :   0.8442 
B(  4-C ,  5-C ) :   1.5584 B(  4-C ,  8-O ) :   0.2539 B(  4-C ,  9-F ) :  -0.1250 
B(  4-C , 12-H ) :   0.7160 B(  5-C ,  6-N ) :   0.6570 B(  5-C ,  7-O ) :  -0.1092 
B(  5-C ,  8-O ) :  -0.2166 B(  5-C ,  9-F ) :  -0.3369 B(  5-C , 12-H ) :   0.1457 
B(  6-N ,  7-O ) :   1.8319 B(  6-N ,  8-O ) :   1.8468 B(  7-O ,  8-O ) :   0.2489 
B( 13-C , 14-H ) :   0.9829 B( 13-C , 15-H ) :   0.9826 B( 13-C , 16-H ) :   0.9807 
B( 13-C , 17-S ) :   0.6284 

-------
TIMINGS
-------

Total SCF time: 0 days 0 hours 0 min 17 sec 

Total time                  ....      17.408 sec
Sum of individual times     ....      16.732 sec  ( 96.1%)

Fock matrix formation       ....      14.775 sec  ( 84.9%)
  Split-RI-J                ....       0.917 sec  (  6.2% of F)
  Chain of spheres X        ....      10.569 sec  ( 71.5% of F)
  XC integration            ....       1.660 sec  ( 11.2% of F)
    Basis function eval.    ....       0.165 sec  (  9.9% of XC)
    Density eval.           ....       0.299 sec  ( 18.0% of XC)
    XC-Functional eval.     ....       0.302 sec  ( 18.2% of XC)
    XC-Potential eval.      ....       0.112 sec  (  6.7% of XC)
Diagonalization             ....       0.037 sec  (  0.2%)
Density matrix formation    ....       0.012 sec  (  0.1%)
Population analysis         ....       0.052 sec  (  0.3%)
Initial guess               ....       0.040 sec  (  0.2%)
Orbital Transformation      ....       0.000 sec  (  0.0%)
Orbital Orthonormalization  ....       0.021 sec  (  0.1%)
DIIS solution               ....       0.014 sec  (  0.1%)
SOSCF solution              ....       0.118 sec  (  0.7%)
Grid generation             ....       1.686 sec  (  9.7%)

Maximum memory used throughout the entire SCF-calculation: 68.4 MB

-------------------------   --------------------
FINAL SINGLE POINT ENERGY      -990.265390655196
-------------------------   --------------------

                                *** OPTIMIZATION RUN DONE ***

                            ***************************************
                            *     ORCA property calculations      *
                            ***************************************

                                    ---------------------
                                    Active property flags
                                    ---------------------
   (+) Dipole Moment


------------------------------------------------------------------------------
                       ORCA ELECTRIC PROPERTIES CALCULATION
------------------------------------------------------------------------------

Dipole Moment Calculation                       ... on
Quadrupole Moment Calculation                   ... off
Polarizability Calculation                      ... off
GBWName                                         ... structure_opt.gbw
Electron density                                ... structure_opt.scfp
The origin for moment calculation is the CENTER OF MASS  = (-0.208050,  3.449382  4.498872)

-------------
DIPOLE MOMENT
-------------
                                X             Y             Z
Electronic contribution:    -10.78612     -22.74955      -6.33099
Nuclear contribution   :      8.19188      14.52233       9.83790
                        -----------------------------------------
Total Dipole Moment    :     -2.59424      -8.22722       3.50691
                        -----------------------------------------
Magnitude (a.u.)       :      9.31212
Magnitude (Debye)      :     23.66954



--------------------
Rotational spectrum 
--------------------
 
Rotational constants in cm-1:     0.028863     0.007634     0.007133 
Rotational constants in MHz :   865.278994   228.854614   213.832617 

 Dipole components along the rotational axes: 
x,y,z [a.u.] :    -8.458656    -3.207909     2.208188 
x,y,z [Debye]:   -21.500195    -8.153858     5.612769 

 

Timings for individual modules:

Sum of individual times         ...     1428.036 sec (=  23.801 min)
GTO integral calculation        ...       74.233 sec (=   1.237 min)   5.2 %
SCF iterations                  ...     1124.022 sec (=  18.734 min)  78.7 %
SCF Gradient evaluation         ...      228.109 sec (=   3.802 min)  16.0 %
Geometry relaxation             ...        1.671 sec (=   0.028 min)   0.1 %
                             ****ORCA TERMINATED NORMALLY****
TOTAL RUN TIME: 0 days 0 hours 25 minutes 20 seconds 58 msec
