
                                 *****************
                                 * O   R   C   A *
                                 *****************

                                            #,                                       
                                            ###                                      
                                            ####                                     
                                            #####                                    
                                            ######                                   
                                           ########,                                 
                                     ,,################,,,,,                         
                               ,,#################################,,                 
                          ,,##########################################,,             
                       ,#########################################, ''#####,          
                    ,#############################################,,   '####,        
                  ,##################################################,,,,####,       
                ,###########''''           ''''###############################       
              ,#####''   ,,,,##########,,,,          '''####'''          '####       
            ,##' ,,,,###########################,,,                        '##       
           ' ,,###''''                  '''############,,,                           
         ,,##''                                '''############,,,,        ,,,,,,###''
      ,#''                                            '''#######################'''  
     '                                                          ''''####''''         
             ,#######,   #######,   ,#######,      ##                                
            ,#'     '#,  ##    ##  ,#'     '#,    #''#        ######   ,####,        
            ##       ##  ##   ,#'  ##            #'  '#       #        #'  '#        
            ##       ##  #######   ##           ,######,      #####,   #    #        
            '#,     ,#'  ##    ##  '#,     ,#' ,#      #,         ##   #,  ,#        
             '#######'   ##     ##  '#######'  #'      '#     #####' # '####'        



                  #######################################################
                  #                        -***-                        #
                  #          Department of theory and spectroscopy      #
                  #    Directorship and core code : Frank Neese         #
                  #        Max Planck Institute fuer Kohlenforschung    #
                  #                Kaiser Wilhelm Platz 1               #
                  #                 D-45470 Muelheim/Ruhr               #
                  #                      Germany                        #
                  #                                                     #
                  #                  All rights reserved                #
                  #                        -***-                        #
                  #######################################################


                         Program Version 5.0.4 -  RELEASE  -


 With contributions from (in alphabetic order):
   Daniel Aravena         : Magnetic Suceptibility
   Michael Atanasov       : Ab Initio Ligand Field Theory (pilot matlab implementation)
   Alexander A. Auer      : GIAO ZORA, VPT2 properties, NMR spectrum
   Ute Becker             : Parallelization
   Giovanni Bistoni       : ED, misc. LED, open-shell LED, HFLD
   Martin Brehm           : Molecular dynamics
   Dmytro Bykov           : SCF Hessian
   Vijay G. Chilkuri      : MRCI spin determinant printing, contributions to CSF-ICE
   Dipayan Datta          : RHF DLPNO-CCSD density
   Achintya Kumar Dutta   : EOM-CC, STEOM-CC
   Dmitry Ganyushin       : Spin-Orbit,Spin-Spin,Magnetic field MRCI
   Miquel Garcia          : C-PCM and meta-GGA Hessian, CC/C-PCM, Gaussian charge scheme
   Yang Guo               : DLPNO-NEVPT2, F12-NEVPT2, CIM, IAO-localization
   Andreas Hansen         : Spin unrestricted coupled pair/coupled cluster methods
   Benjamin Helmich-Paris : MC-RPA, TRAH-SCF, COSX integrals
   Lee Huntington         : MR-EOM, pCC
   Robert Izsak           : Overlap fitted RIJCOSX, COSX-SCS-MP3, EOM
   Marcus Kettner         : VPT2
   Christian Kollmar      : KDIIS, OOCD, Brueckner-CCSD(T), CCSD density, CASPT2, CASPT2-K
   Simone Kossmann        : Meta GGA functionals, TD-DFT gradient, OOMP2, MP2 Hessian
   Martin Krupicka        : Initial AUTO-CI
   Lucas Lang             : DCDCAS
   Marvin Lechner         : AUTO-CI (C++ implementation), FIC-MRCC
   Dagmar Lenk            : GEPOL surface, SMD
   Dimitrios Liakos       : Extrapolation schemes; Compound Job, initial MDCI parallelization
   Dimitrios Manganas     : Further ROCIS development; embedding schemes
   Dimitrios Pantazis     : SARC Basis sets
   Anastasios Papadopoulos: AUTO-CI, single reference methods and gradients
   Taras Petrenko         : DFT Hessian,TD-DFT gradient, ASA, ECA, R-Raman, ABS, FL, XAS/XES, NRVS
   Peter Pinski           : DLPNO-MP2, DLPNO-MP2 Gradient
   Christoph Reimann      : Effective Core Potentials
   Marius Retegan         : Local ZFS, SOC
   Christoph Riplinger    : Optimizer, TS searches, QM/MM, DLPNO-CCSD(T), (RO)-DLPNO pert. Triples
   Tobias Risthaus        : Range-separated hybrids, TD-DFT gradient, RPA, STAB
   Michael Roemelt        : Original ROCIS implementation
   Masaaki Saitow         : Open-shell DLPNO-CCSD energy and density
   Barbara Sandhoefer     : DKH picture change effects
   Avijit Sen             : IP-ROCIS
   Kantharuban Sivalingam : CASSCF convergence, NEVPT2, FIC-MRCI
   Bernardo de Souza      : ESD, SOC TD-DFT
   Georgi Stoychev        : AutoAux, RI-MP2 NMR, DLPNO-MP2 response
   Willem Van den Heuvel  : Paramagnetic NMR
   Boris Wezisla          : Elementary symmetry handling
   Frank Wennmohs         : Technical directorship


 We gratefully acknowledge several colleagues who have allowed us to
 interface, adapt or use parts of their codes:
   Stefan Grimme, W. Hujo, H. Kruse, P. Pracht,  : VdW corrections, initial TS optimization,
                  C. Bannwarth, S. Ehlert          DFT functionals, gCP, sTDA/sTD-DF
   Ed Valeev, F. Pavosevic, A. Kumar             : LibInt (2-el integral package), F12 methods
   Garnet Chan, S. Sharma, J. Yang, R. Olivares  : DMRG
   Ulf Ekstrom                                   : XCFun DFT Library
   Mihaly Kallay                                 : mrcc  (arbitrary order and MRCC methods)
   Jiri Pittner, Ondrej Demel                    : Mk-CCSD
   Frank Weinhold                                : gennbo (NPA and NBO analysis)
   Christopher J. Cramer and Donald G. Truhlar   : smd solvation model
   Lars Goerigk                                  : TD-DFT with DH, B97 family of functionals
   V. Asgeirsson, H. Jonsson                     : NEB implementation
   FAccTs GmbH                                   : IRC, NEB, NEB-TS, DLPNO-Multilevel, CI-OPT
                                                   MM, QMMM, 2- and 3-layer-ONIOM, Crystal-QMMM,
                                                   LR-CPCM, SF, NACMEs, symmetry and pop. for TD-DFT,
                                                   nearIR, NL-DFT gradient (VV10), updates on ESD,
                                                   ML-optimized integration grids
   S Lehtola, MJT Oliveira, MAL Marques          : LibXC Library
   Liviu Ungur et al                             : ANISO software


 Your calculation uses the libint2 library for the computation of 2-el integrals
 For citations please refer to: http://libint.valeyev.net

 Your ORCA version has been built with support for libXC version: 5.1.0
 For citations please refer to: https://tddft.org/programs/libxc/

 This ORCA versions uses:
   CBLAS   interface :  Fast vector & matrix operations
   LAPACKE interface :  Fast linear algebra routines
   SCALAPACK package :  Parallel linear algebra routines
   Shared memory     :  Shared parallel matrices
   BLAS/LAPACK       :  OpenBLAS 0.3.15  USE64BITINT DYNAMIC_ARCH NO_AFFINITY SkylakeX SINGLE_THREADED
        Core in use  :  SkylakeX
   Copyright (c) 2011-2014, The OpenBLAS Project




***************************************
The coordinates will be read from file: reactants.xyz
***************************************


Your calculation utilizes the SMD solvation module
Please cite in your paper:
A.V. Marenich, C.J. Cramer, D.G. Truhlar J. Phys. Chem. B, 113, (2009), 6378 

XCFun DFT library Copyright 2009-2010 Ulf Ekstrom and contributors.
See http://admol.org/xcfun for more information.
This is free software; see the source code for copying conditions.
There is ABSOLUTELY NO WARRANTY; not even for MERCHANTABILITY or FITNESS FOR A PARTICULAR PURPOSE.
For details see the documentation.
Scientific users of this library should cite U. Ekstrom, L. Visscher, R. Bast, A. J. Thorvaldsen and K. Ruud;
J.Chem.Theor.Comp. 2010, DOI: 10.1021/ct100117s
XCFun Version 0.99 

================================================================================

----- Orbital basis set information -----
Your calculation utilizes the basis: 6-311++G**
   H, Li - Ne  : R. Krishnan, J. S. Binkley, R. Seeger and J. A. Pople, J. Chem. Phys. 72, 650 (1980).
   Na - Ar     : A. D. McLean and G. S. Chandler J. Chem. Phys. 72, 5639, (1980).
   K  - Ca     : J.-P. Blaudeau, M. P. McGrath, L. A. Curtiss and L. Radom, J. Chem. Phys. 107, 5016 (1997).
   Ga - Kr     : L. A. Curtiss, M. P. McGrath, J.-P. Blandeau, N. E. Davis, R. C. Binning and L. Radom, J. Chem. Phys. 103, 6104 (1995).
   Pol./Diff.
   H, Li - Cl  : T. Clark, J. Chandrasekhar and P. v. R. Schleyer, J. Comp. Chem. 4, 294 (1983).
   H - Ne      : M. J. Frisch, J. A. Pople and J. S. Binkley, J. Chem. Phys. 80, 3265 (1984).

----- AuxJ basis set information -----
Your calculation utilizes the auxiliary basis: def2/J
   F. Weigend, Phys. Chem. Chem. Phys. 8, 1057 (2006).

================================================================================
                                        WARNINGS
                       Please study these warnings very carefully!
================================================================================


WARNING: Geometry Optimization
  ===> : Switching off AutoStart
         For restart on a previous wavefunction, please use MOREAD

INFO   : the flag for use of the SHARK integral package has been found!

================================================================================
                                       INPUT FILE
================================================================================
NAME = structure_opt.inp
|  1> !wb97x 6-311++G** OPT CPCM(WATER)
|  2> %maxcore  3500
|  3> %pal
|  4> nprocs 24
|  5> end
|  6> %cpcm
|  7> smd true
|  8> SMDsolvent "water"
|  9> end
| 10> %geom
| 11> ConstrainFragments {1} end
| 12> ConstrainFragments {4} end
| 13> ConnectFragments
| 14> { 1 2 C 5 7 }
| 15> { 1 2 C 0 9 }
| 16> { 2 3 C 13 5 }
| 17> { 3 4 C 13 17 }
| 18> end
| 19> end
| 20> * XYZfile -1 1 reactants.xyz
| 21> %geom
| 22> Fragments
| 23> 1 {0:5} end
| 24> 2 {6:12} end
| 25> 3 {13:16} end
| 26> 4 {17} end
| 27> end
| 28> end
| 29> 
| 30>                          ****END OF INPUT****
================================================================================

                       *****************************
                       * Geometry Optimization Run *
                       *****************************

Geometry optimization settings:
Update method            Update   .... BFGS
Choice of coordinates    CoordSys .... Z-matrix Internals
Initial Hessian          InHess   .... Almoef's Model

Convergence Tolerances:
Energy Change            TolE     ....  5.0000e-06 Eh
Max. Gradient            TolMAXG  ....  3.0000e-04 Eh/bohr
RMS Gradient             TolRMSG  ....  1.0000e-04 Eh/bohr
Max. Displacement        TolMAXD  ....  4.0000e-03 bohr
RMS Displacement         TolRMSD  ....  2.0000e-03 bohr
Strict Convergence                ....  False
------------------------------------------------------------------------------
                        ORCA OPTIMIZATION COORDINATE SETUP
------------------------------------------------------------------------------

The optimization will be done in new redundant internal coordinates
Making redundant internal coordinates   ...  (new redundants) done
Evaluating the initial hessian          ...  (Almloef) done
Evaluating the coordinates              ...  done
Calculating the B-matrix                .... done
Calculating the G-matrix                .... done
Diagonalizing the G-matrix              .... done
Imposing constraints:
 Iter   0:  RMS(Cart)=    0.0000000000 RMS(Int)=    0.0000000000
CONVERGED
Small eigenvalue found = 3.273e-03
Small eigenvalue found = 7.773e-03
Small eigenvalue found = 1.106e-02
The first mode is                       ....   56
The number of degrees of freedom        ....   48
Storing new coordinates                 .... done

    -----------------------------------------------------------------
                    Redundant Internal Coordinates


    -----------------------------------------------------------------
         Definition                    Initial Value    Approx d2E/dq
    -----------------------------------------------------------------
      1. B(N   1,C   0)                  1.3611         0.622347   
      2. B(C   2,N   1)                  1.3582         0.628875   
      3. B(C   3,C   2)                  1.3949         0.613658   
      4. B(C   4,C   3)                  1.3934         0.616971   
      5. B(C   5,C   0)                  1.4122         0.575774   
      6. B(C   5,C   4)                  1.4061         0.588917   
      7. B(O   7,C   5)                  2.3435         0.016853 C 
      8. B(O   7,N   6)                  1.2480         0.844503   
      9. B(O   8,N   6)                  1.3769         0.525866   
     10. B(F   9,C   0)                  1.3500         0.602260 C 
     11. B(F   9,N   6)                  2.8678         0.002044   
     12. B(F   9,O   7)                  2.5821         0.005837   
     13. B(H  11,H  10)                  2.4818         0.000415   
     14. B(H  12,O   8)                  2.5152         0.001717   
     15. B(H  12,H  11)                  2.4663         0.000439   
     16. B(H  12,N   6)                  2.7029         0.000861   
     17. B(C  13,H  10)                  7.7714         0.000000 C 
     18. B(H  14,C  13)                  1.0933         0.355787   
     19. B(H  15,C  13)                  1.0924         0.356879   
     20. B(H  16,C  13)                  1.0933         0.355736   
     21. B(S  17,C  13)                  1.8031         0.369292 C 
     22. A(C   5,C   0,F   9)          121.1725         0.421471 C 
     23. A(N   1,C   0,C   5)          120.1571         0.425830   
     24. A(N   1,C   0,F   9)          118.6704         0.424592 C 
     25. A(C   0,N   1,C   2)          121.9524         0.429796   
     26. A(N   1,C   2,C   3)          120.0262         0.431531   
     27. A(C   2,C   3,C   4)          119.3498         0.432882   
     28. A(C   3,C   4,C   5)          120.4718         0.429694   
     29. A(C   4,C   5,O   7)          147.4261         0.238582 C 
     30. A(C   0,C   5,O   7)           94.5313         0.237820 C 
     31. A(C   0,C   5,C   4)          118.0425         0.424407   
     32. A(O   8,N   6,H  12)           67.2752         0.152046   
     33. A(O   7,N   6,H  12)          174.2234         0.159181   
     34. A(O   7,N   6,O   8)          118.5014         0.433822   
     35. A(F   9,N   6,H  12)          110.0144         0.106848   
     36. A(O   7,N   6,F   9)           64.2090         0.186619   
     37. A(N   6,O   7,F   9)           89.9947         0.212791   
     38. A(C   5,O   7,N   6)           31.7456         0.248611 C 
     39. A(C   5,O   7,F   9)           58.2491         0.140475 C 
     40. A(N   6,O   8,H  12)           82.3972         0.162696   
     41. A(N   6,F   9,O   7)           25.7962         0.120482   
     42. A(C   0,F   9,O   7)           86.0471         0.203997 C 
     43. A(C   0,F   9,N   6)           60.2509         0.179684 C 
     44. A(H  11,H  10,C  13)          106.6541         0.089135 C 
     45. A(H  10,H  11,H  12)          119.7063         0.095112   
     46. A(N   6,H  12,O   8)           30.3275         0.103999   
     47. A(N   6,H  12,H  11)          126.7169         0.097913   
     48. A(O   8,H  12,H  11)          157.0445         0.099419   
     49. A(H  14,C  13,H  15)          109.1185         0.289881   
     50. A(H  14,C  13,H  16)          108.9269         0.289735   
     51. A(H  15,C  13,H  16)          109.0137         0.289874   
     52. A(H  10,C  13,H  14)          134.5126         0.089778 C 
     53. A(H  10,C  13,H  15)          109.9484         0.089779 C 
     54. A(H  10,C  13,H  16)           79.0544         0.089778 C 
     55. A(H  14,C  13,S  17)          109.9507         0.339498 C 
     56. A(H  15,C  13,S  17)          109.9558         0.339672 C 
     57. A(H  16,C  13,S  17)          109.8506         0.339490 C 
     58. A(H  10,C  13,S  17)           33.3623         0.089971   
     59. D(C   2,N   1,C   0,C   5)     -0.1041         0.028432   
     60. D(C   2,N   1,C   0,F   9)    179.9112         0.028432 C 
     61. D(C   3,C   2,N   1,C   0)      0.1066         0.025783   
     62. D(C   4,C   3,C   2,N   1)     -0.0956         0.020965   
     63. D(C   5,C   4,C   3,C   2)      0.0854         0.021202   
     64. D(C   4,C   5,C   0,N   1)      0.0896         0.022761   
     65. D(O   7,C   5,C   0,N   1)    179.9933         0.022761 C 
     66. D(O   7,C   5,C   4,C   3)   -179.9036         0.021656 C 
     67. D(C   0,C   5,C   4,C   3)     -0.0818         0.021656   
     68. D(C   4,C   5,C   0,F   9)   -179.9260         0.022761 C 
     69. D(O   7,C   5,C   0,F   9)     -0.0223         0.022761 C 
     70. D(F   9,O   7,C   5,C   0)      0.0117         0.001517 C 
     71. D(N   6,O   7,C   5,C   0)   -179.9521         0.001517 C 
     72. D(N   6,O   7,C   5,C   4)     -0.1099         0.001517 C 
     73. D(F   9,O   7,C   5,C   4)    179.8539         0.001517 C 
     74. D(F   9,O   7,N   6,O   8)    179.9932         0.079747   
     75. D(F   9,O   7,N   6,H  12)      0.1568         0.079747   
     76. D(C   5,O   7,N   6,O   8)   -179.9761         0.079747 C 
     77. D(C   5,O   7,N   6,H  12)      0.1876         0.079747 C 
     78. D(C   5,O   7,N   6,F   9)      0.0308         0.079747 C 
     79. D(H  12,O   8,N   6,O   7)   -179.9821         0.025649   
     80. D(C   0,F   9,O   7,C   5)     -0.0123         0.001503 C 
     81. D(N   6,F   9,C   0,C   5)      0.0236         0.032536 C 
     82. D(O   7,F   9,C   0,N   1)   -179.9952         0.032536 C 
     83. D(O   7,F   9,C   0,C   5)      0.0202         0.032536 C 
     84. D(O   7,F   9,N   6,H  12)   -179.9832         0.001500   
     85. D(C   0,F   9,N   6,O   7)   -179.9922         0.001500 C 
     86. D(C   0,F   9,N   6,H  12)      0.0246         0.001500 C 
     87. D(N   6,F   9,O   7,C   5)     -0.0190         0.001503 C 
     88. D(N   6,F   9,C   0,N   1)   -179.9918         0.032536 C 
     89. D(C   0,F   9,O   7,N   6)      0.0068         0.001503 C 
     90. D(O   7,F   9,O   8,H  12)   -179.9897         0.001500   
     91. D(C   0,F   9,O   8,H  12)      0.0232         0.001500 C 
     92. D(H  12,H  11,H  10,C  13)    -86.6117         0.001501 C 
     93. D(O   8,H  12,N   6,O   7)    179.8441         0.001501   
     94. D(O   8,H  12,N   6,F   9)    179.9943         0.001501   
     95. D(H  11,H  12,N   6,O   7)     -0.1748         0.001501   
     96. D(H  11,H  12,N   6,O   8)    179.9811         0.001501   
     97. D(H  11,H  12,N   6,F   9)     -0.0245         0.001501   
     98. D(H  11,H  12,O   8,N   6)     -0.0388         0.001502   
     99. D(N   6,H  12,H  11,H  10)      0.0466         0.001502   
    100. D(O   8,H  12,H  11,H  10)      0.0710         0.001502   
    101. D(H  14,C  13,H  10,H  11)    146.1195         0.001500 C 
    102. D(H  15,C  13,H  10,H  11)     -1.5997         0.001500 C 
    103. D(H  16,C  13,H  10,H  11)   -108.0282         0.001500 C 
    104. D(S  17,C  13,H  10,H  11)     94.6576         0.001500   
    -----------------------------------------------------------------

Number of atoms                         .... 18
Number of degrees of freedom            .... 104

         *************************************************************
         *                GEOMETRY OPTIMIZATION CYCLE   1            *
         *************************************************************
---------------------------------
CARTESIAN COORDINATES (ANGSTROEM)
---------------------------------
  C      0.000000    0.000000    1.820000
  N      1.178000   -0.196000    2.473000
  C      1.255000   -0.207000    3.829000
  C      0.105000   -0.016000    4.595000
  C     -1.116000    0.187000    3.955000
  C     -1.192000    0.198000    2.551000
  N     -2.456000    0.409000    1.893000
  O     -2.541000    0.423000    0.648000
  O     -3.602000    0.600000    2.632000
  F      0.000000    0.000000    0.470000
  H      2.209000   -0.366000    4.313000
  H      0.163000   -0.026000    5.676000
  H     -2.005000    0.335000    4.557000
  C      2.587000   -7.963000    2.720000
  H      2.941000   -8.551000    1.869000
  H      1.752000   -8.485000    3.193000
  H      3.400000   -7.862000    3.444000
  S      2.057000   -6.332000    2.163000

----------------------------
CARTESIAN COORDINATES (A.U.)
----------------------------
  NO LB      ZA    FRAG     MASS         X           Y           Z
   0 C     6.0000    1    12.011    0.000000    0.000000    3.439302
   1 N     7.0000    1    14.007    2.226097   -0.370386    4.673293
   2 C     6.0000    1    12.011    2.371606   -0.391173    7.235761
   3 C     6.0000    1    12.011    0.198421   -0.030236    8.683292
   4 C     6.0000    1    12.011   -2.108934    0.353379    7.473867
   5 C     6.0000    1    12.011   -2.252554    0.374166    4.820691
   6 N     7.0000    2    14.007   -4.641167    0.772898    3.577252
   7 O     8.0000    2    15.999   -4.801794    0.799354    1.224543
   8 O     8.0000    2    15.999   -6.806794    1.133836    4.973759
   9 F     9.0000    2    18.998    0.000000    0.000000    0.888171
  10 H     1.0000    2     1.008    4.174405   -0.691640    8.150389
  11 H     1.0000    2     1.008    0.308025   -0.049133   10.726086
  12 H     1.0000    2     1.008   -3.788901    0.633058    8.611482
  13 C     6.0000    3    12.011    4.888722  -15.047889    5.140055
  14 H     1.0000    3     1.008    5.557685  -16.159048    3.531898
  15 H     1.0000    3     1.008    3.310800  -16.034326    6.033896
  16 H     1.0000    3     1.008    6.425069  -14.857027    6.508217
  17 S    16.0000    4    32.060    3.887167  -11.965746    4.087478

----------------------------------------------
CARTESIAN COORDINATES OF FRAGMENTS (ANGSTROEM)
----------------------------------------------

 FRAGMENT 1 
  C     0.000000    0.000000    1.820000
  N     1.178000   -0.196000    2.473000
  C     1.255000   -0.207000    3.829000
  C     0.105000   -0.016000    4.595000
  C    -1.116000    0.187000    3.955000
  C    -1.192000    0.198000    2.551000

 FRAGMENT 2 
  N    -2.456000    0.409000    1.893000
  O    -2.541000    0.423000    0.648000
  O    -3.602000    0.600000    2.632000
  F     0.000000    0.000000    0.470000
  H     2.209000   -0.366000    4.313000
  H     0.163000   -0.026000    5.676000
  H    -2.005000    0.335000    4.557000

 FRAGMENT 3 
  C     2.587000   -7.963000    2.720000
  H     2.941000   -8.551000    1.869000
  H     1.752000   -8.485000    3.193000
  H     3.400000   -7.862000    3.444000

 FRAGMENT 4 
  S     2.057000   -6.332000    2.163000

--------------------------------
INTERNAL COORDINATES (ANGSTROEM)
--------------------------------
 C      0   0   0     0.000000000000     0.00000000     0.00000000
 N      1   0   0     1.361069065110     0.00000000     0.00000000
 C      2   1   0     1.358228993948   121.95243626     0.00000000
 C      3   2   1     1.394896770374   120.02620694     0.10655554
 C      4   3   2     1.393431017309   119.34983770   359.90435571
 C      5   4   3     1.406098502951   120.47178172     0.08537773
 N      6   5   4     1.440548853736   120.30882193   180.03842131
 O      7   6   5     1.247976762604   121.13704526   179.93147861
 O      7   6   5     1.376923382037   120.36156660   359.90709941
 F      1   2   3     1.350000000000   118.67037638   179.91115691
 H      3   2   1     1.081504969938   119.86701156   179.98746005
 H      4   3   2     1.082601034546   120.19197482   179.89186186
 H      5   4   3     1.083803026384   118.91636700   180.02085854
 C     11   3   2     7.771418274678    95.44491280   286.22623921
 H     14  11   3     1.093279927557   134.51258238    85.94648785
 H     14  11   3     1.092445879666   109.94839937   298.22725860
 H     14  11   3     1.093318800716    79.05440126   191.79880535
 S     14  11   3     1.803138929756    33.36234328    34.48460590

---------------------------
INTERNAL COORDINATES (A.U.)
---------------------------
 C      0   0   0     0.000000000000     0.00000000     0.00000000
 N      1   0   0     2.572047782411     0.00000000     0.00000000
 C      2   1   0     2.566680825712   121.95243626     0.00000000
 C      3   2   1     2.635972881098   120.02620694     0.10655554
 C      4   3   2     2.633203009226   119.34983770   359.90435571
 C      5   4   3     2.657141087893   120.47178172     0.08537773
 N      6   5   4     2.722242816095   120.30882193   180.03842131
 O      7   6   5     2.358334302820   121.13704526   179.93147861
 O      7   6   5     2.602008099442   120.36156660   359.90709941
 F      1   2   3     2.551130280794   118.67037638   179.91115691
 H      3   2   1     2.043748205657   119.86701156   179.98746005
 H      4   3   2     2.045819467592   120.19197482   179.89186186
 H      5   4   3     2.048090902982   118.91636700   180.02085854
 C     11   3   2    14.685852211292    95.44491280   286.22623921
 H     14  11   3     2.065999650797   134.51258238    85.94648785
 H     14  11   3     2.064423528700   109.94839937   298.22725860
 H     14  11   3     2.066073110421    79.05440126   191.79880535
 S     14  11   3     3.407438758650    33.36234328    34.48460590

---------------------
BASIS SET INFORMATION
---------------------
There are 6 groups of distinct atoms

 Group   1 Type C   : 12s6p1d contracted to 5s4p1d pattern {63111/3111/1}
 Group   2 Type N   : 12s6p1d contracted to 5s4p1d pattern {63111/3111/1}
 Group   3 Type O   : 12s6p1d contracted to 5s4p1d pattern {63111/3111/1}
 Group   4 Type F   : 12s6p1d contracted to 5s4p1d pattern {63111/3111/1}
 Group   5 Type H   : 6s1p contracted to 4s1p pattern {3111/1}
 Group   6 Type S   : 14s10p1d contracted to 7s6p1d pattern {6311111/421111/1}

Atom   0C    basis set group =>   1
Atom   1N    basis set group =>   2
Atom   2C    basis set group =>   1
Atom   3C    basis set group =>   1
Atom   4C    basis set group =>   1
Atom   5C    basis set group =>   1
Atom   6N    basis set group =>   2
Atom   7O    basis set group =>   3
Atom   8O    basis set group =>   3
Atom   9F    basis set group =>   4
Atom  10H    basis set group =>   5
Atom  11H    basis set group =>   5
Atom  12H    basis set group =>   5
Atom  13C    basis set group =>   1
Atom  14H    basis set group =>   5
Atom  15H    basis set group =>   5
Atom  16H    basis set group =>   5
Atom  17S    basis set group =>   6
---------------------------------
AUXILIARY/J BASIS SET INFORMATION
---------------------------------
There are 6 groups of distinct atoms

 Group   1 Type C   : 12s5p4d2f1g contracted to 6s4p3d1f1g pattern {711111/2111/211/2/1}
 Group   2 Type N   : 12s5p4d2f1g contracted to 6s4p3d1f1g pattern {711111/2111/211/2/1}
 Group   3 Type O   : 12s5p4d2f1g contracted to 6s4p3d1f1g pattern {711111/2111/211/2/1}
 Group   4 Type F   : 12s5p4d2f1g contracted to 6s4p3d1f1g pattern {711111/2111/211/2/1}
 Group   5 Type H   : 5s2p1d contracted to 3s1p1d pattern {311/2/1}
 Group   6 Type S   : 14s5p5d2f1g contracted to 8s4p3d1f1g pattern {71111111/2111/311/2/1}

Atom   0C    basis set group =>   1
Atom   1N    basis set group =>   2
Atom   2C    basis set group =>   1
Atom   3C    basis set group =>   1
Atom   4C    basis set group =>   1
Atom   5C    basis set group =>   1
Atom   6N    basis set group =>   2
Atom   7O    basis set group =>   3
Atom   8O    basis set group =>   3
Atom   9F    basis set group =>   4
Atom  10H    basis set group =>   5
Atom  11H    basis set group =>   5
Atom  12H    basis set group =>   5
Atom  13C    basis set group =>   1
Atom  14H    basis set group =>   5
Atom  15H    basis set group =>   5
Atom  16H    basis set group =>   5
Atom  17S    basis set group =>   6


           ************************************************************
           *        Program running with 24 parallel MPI-processes    *
           *              working on a common directory               *
           ************************************************************
------------------------------------------------------------------------------
                           ORCA GTO INTEGRAL CALCULATION
                           -- RI-GTO INTEGRALS CHOSEN --
------------------------------------------------------------------------------
------------------------------------------------------------------------------
                   ___                                                        
                  /   \      - P O W E R E D   B Y -                         
                 /     \                                                     
                 |  |  |   _    _      __       _____    __    __             
                 |  |  |  | |  | |    /  \     |  _  \  |  |  /  |          
                  \  \/   | |  | |   /    \    | | | |  |  | /  /          
                 / \  \   | |__| |  /  /\  \   | |_| |  |  |/  /          
                |  |  |   |  __  | /  /__\  \  |    /   |      \           
                |  |  |   | |  | | |   __   |  |    \   |  |\   \          
                \     /   | |  | | |  |  |  |  | |\  \  |  | \   \       
                 \___/    |_|  |_| |__|  |__|  |_| \__\ |__|  \__/        
                                                                              
                      - O R C A' S   B I G   F R I E N D -                    
                                      &                                       
                       - I N T E G R A L  F E E D E R -                       
                                                                              
 v1 FN, 2020, v2 2021                                                         
------------------------------------------------------------------------------


Reading SHARK input file structure_opt.SHARKINP.tmp ... ok
----------------------
SHARK INTEGRAL PACKAGE
----------------------

Number of atoms                             ...     18
Number of basis functions                   ...    314
Number of shells                            ...    154
Maximum angular momentum                    ...      2
Integral batch strategy                     ... SHARK/LIBINT Hybrid
RI-J (if used) integral strategy            ... SPLIT-RIJ (Revised 2003 algorithm where possible)
Printlevel                                  ...      1
Contraction scheme used                     ... SEGMENTED contraction
Coulomb Range Separation                    ... NOT USED
Exchange Range Separation                   ... Long Range
   Mu parameter                             ...  0.300000
   Scaling (regular/separated)              ...  0.157706  0.842294
Finite Nucleus Model                        ... NOT USED
Auxiliary Coulomb fitting basis             ... AVAILABLE
   # of basis functions in Aux-J            ...    656
   # of shells in Aux-J                     ...    212
   Maximum angular momentum in Aux-J        ...      4
Auxiliary J/K fitting basis                 ... NOT available
Auxiliary Correlation fitting basis         ... NOT available
Auxiliary 'external' fitting basis          ... NOT available
Integral threshold                          ...     2.500000e-11
Primitive cut-off                           ...     2.500000e-12
Primitive pair pre-selection threshold      ...     2.500000e-12

Calculating pre-screening integrals         ... done (  0.0 sec) Dimension = 154
Organizing shell pair data                  ... done (  0.1 sec)
Shell pair information
Total number of shell pairs                 ...     11935
Shell pairs after pre-screening             ...      8829
Total number of primitive shell pairs       ...     38500
Primitive shell pairs kept                  ...     20196
          la=0 lb=0:   2701 shell pairs
          la=1 lb=0:   3633 shell pairs
          la=1 lb=1:   1252 shell pairs
          la=2 lb=0:    706 shell pairs
          la=2 lb=1:    485 shell pairs
          la=2 lb=2:     52 shell pairs

Calculating one electron integrals          ... done (  0.0 sec)
Calculating RI/J V-Matrix + Cholesky decomp.... done (  0.1 sec)
Calculating Nuclear repulsion               ... done (  0.0 sec) ENN=    672.005040022769 Eh

SHARK setup successfully completed in   0.7 seconds

Maximum memory used throughout the entire GTOINT-calculation: 17.5 MB


           ************************************************************
           *        Program running with 24 parallel MPI-processes    *
           *              working on a common directory               *
           ************************************************************
-------------------------------------------------------------------------------
                                 ORCA SCF
-------------------------------------------------------------------------------

------------
SCF SETTINGS
------------
Hamiltonian:
 Density Functional     Method          .... DFT(GTOs)
 Exchange Functional    Exchange        .... WB97X
 Correlation Functional Correlation     .... WB97X
 Gradients option       PostSCFGGA      .... off
 Hybrid DFT is turned on
   Fraction HF Exchange ScalHFX         ....  0.157706
   Scaling of DF-GGA-X  ScalDFX         ....  0.000000
   Scaling of DF-GGA-C  ScalDFC         ....  1.000000
   Scaling of DF-LDA-C  ScalLDAC        ....  1.000000
   Perturbative correction              ....  0.000000
   Density functional embedding theory  .... OFF
 Long-range corrected/Screened/Range-Separated Hybrid DFT is turned on
   Amount of maximum screened exact exchange              ....  0.842294
   Range separation parameter mu (erf(mu*r12)/r12)        ....  0.300000
 RI-approximation to the Coulomb term is turned on
   Number of AuxJ basis functions       .... 656
   RIJ-COSX (HFX calculated with COS-X)).... on


General Settings:
 Integral files         IntName         .... structure_opt
 Hartree-Fock type      HFTyp           .... RHF
 Total Charge           Charge          ....   -1
 Multiplicity           Mult            ....    1
 Number of Electrons    NEL             ....   98
 Basis Dimension        Dim             ....  314
 Nuclear Repulsion      ENuc            ....    672.0050400228 Eh

Convergence Acceleration:
 DIIS                   CNVDIIS         .... on
   Start iteration      DIISMaxIt       ....    12
   Startup error        DIISStart       ....  0.200000
   # of expansion vecs  DIISMaxEq       ....     5
   Bias factor          DIISBfac        ....   1.050
   Max. coefficient     DIISMaxC        ....  10.000
 Trust-Rad. Augm. Hess. CNVTRAH         .... auto
   Auto Start mean grad. ratio tolernc. ....  1.125000
   Auto Start start iteration           ....    20
   Auto Start num. interpolation iter.  ....    10
   Max. Number of Micro iterations      ....    16
   Max. Number of Macro iterations      .... Maxiter - #DIIS iter
   Number of Davidson start vectors     ....     2
   Converg. threshold I  (grad. norm)   ....   1.000e-05
   Converg. threshold II (energy diff.) ....   1.000e-08
   Grad. Scal. Fac. for Micro threshold ....   0.100
   Minimum threshold for Micro iter.    ....   0.010
   NR start threshold (gradient norm)   ....   0.001
   Initial trust radius                 ....   0.400
   Minimum AH scaling param. (alpha)    ....   1.000
   Maximum AH scaling param. (alpha)    .... 1000.000
   Orbital update algorithm             .... Taylor
   White noise on init. David. guess    .... on
   Maximum white noise                  ....   0.010
   Quad. conv. algorithm                .... NR
 SOSCF                  CNVSOSCF        .... on
   Start iteration      SOSCFMaxIt      ....   150
   Startup grad/error   SOSCFStart      ....  0.003300
 Level Shifting         CNVShift        .... on
   Level shift para.    LevelShift      ....    0.2500
   Turn off err/grad.   ShiftErr        ....    0.0010
 Zerner damping         CNVZerner       .... off
 Static damping         CNVDamp         .... on
   Fraction old density DampFac         ....    0.7000
   Max. Damping (<1)    DampMax         ....    0.9800
   Min. Damping (>=0)   DampMin         ....    0.0000
   Turn off err/grad.   DampErr         ....    0.1000
 Fernandez-Rico         CNVRico         .... off

SCF Procedure:
 Maximum # iterations   MaxIter         ....   125
 SCF integral mode      SCFMode         .... Direct
   Integral package                     .... SHARK and LIBINT hybrid scheme
 Reset frequency        DirectResetFreq ....    20
 Integral Threshold     Thresh          ....  2.500e-11 Eh
 Primitive CutOff       TCut            ....  2.500e-12 Eh

Convergence Tolerance:
 Convergence Check Mode ConvCheckMode   .... Total+1el-Energy
 Convergence forced     ConvForced      .... 0
 Energy Change          TolE            ....  1.000e-08 Eh
 1-El. energy change                    ....  1.000e-05 Eh
 Orbital Gradient       TolG            ....  1.000e-05
 Orbital Rotation angle TolX            ....  1.000e-05
 DIIS Error             TolErr          ....  5.000e-07


Diagonalization of the overlap matrix:
Smallest eigenvalue                        ... 4.380e-06
Time for diagonalization                   ...    0.030 sec
Threshold for overlap eigenvalues          ... 1.000e-08
Number of eigenvalues below threshold      ... 0
Time for construction of square roots      ...    0.041 sec
Total time needed                          ...    0.073 sec

Time for model grid setup =    0.340 sec

------------------------------
INITIAL GUESS: MODEL POTENTIAL
------------------------------
Loading Hartree-Fock densities                     ... done
Calculating cut-offs                               ... done
Initializing the effective Hamiltonian             ... done
Setting up the integral package (SHARK)            ... done
Starting the Coulomb interaction                   ... done (   0.1 sec)
Reading the grid                                   ... done
Mapping shells                                     ... done
Starting the XC term evaluation                    ... done (   0.0 sec)
  promolecular density results
     # of electrons  =     96.996495423
     EX              =    -96.552730159
     EC              =     -3.327237895
     EX+EC           =    -99.879968055
Transforming the Hamiltonian                       ... done (   0.0 sec)
Diagonalizing the Hamiltonian                      ... done (   0.0 sec)
Back transforming the eigenvectors                 ... done (   0.0 sec)
Now organizing SCF variables                       ... done
                      ------------------
                      INITIAL GUESS DONE (   0.5 sec)
                      ------------------
-------------------
DFT GRID GENERATION
-------------------

General Integration Accuracy     IntAcc      ... 4.388
Radial Grid Type                 RadialGrid  ... OptM3 with GC (2021)
Angular Grid (max. ang.)         AngularGrid ... 4 (Lebedev-302)
Angular grid pruning method      GridPruning ... 4 (adaptive)
Weight generation scheme         WeightScheme... Becke
Basis function cutoff            BFCut       ... 1.0000e-11
Integration weight cutoff        WCut        ... 1.0000e-14
Angular grids for H and He will be reduced by one unit
Partially contracted basis set               ... off
Rotationally invariant grid construction     ... off

Total number of grid points                  ...    98155
Total number of batches                      ...     1542
Average number of points per batch           ...       63
Average number of grid points per atom       ...     5453
Time for grid setup =    0.579 sec

--------------------
COSX GRID GENERATION
--------------------

GRIDX 1
-------
General Integration Accuracy     IntAcc      ... 3.816
Radial Grid Type                 RadialGrid  ... OptM3 with GC (2021)
Angular Grid (max. ang.)         AngularGrid ... 1 (Lebedev-50)
Angular grid pruning method      GridPruning ... 4 (adaptive)
Weight generation scheme         WeightScheme... Becke
Basis function cutoff            BFCut       ... 1.0000e-11
Integration weight cutoff        WCut        ... 1.0000e-14
Angular grids for H and He will be reduced by one unit
Partially contracted basis set               ... on
Rotationally invariant grid construction     ... off

Total number of grid points                  ...    12257
Total number of batches                      ...      202
Average number of points per batch           ...       60
Average number of grid points per atom       ...      681
UseSFitting                                  ... on

GRIDX 2
-------
General Integration Accuracy     IntAcc      ... 4.020
Radial Grid Type                 RadialGrid  ... OptM3 with GC (2021)
Angular Grid (max. ang.)         AngularGrid ... 2 (Lebedev-110)
Angular grid pruning method      GridPruning ... 4 (adaptive)
Weight generation scheme         WeightScheme... Becke
Basis function cutoff            BFCut       ... 1.0000e-11
Integration weight cutoff        WCut        ... 1.0000e-14
Angular grids for H and He will be reduced by one unit
Partially contracted basis set               ... on
Rotationally invariant grid construction     ... off

Total number of grid points                  ...    31118
Total number of batches                      ...      496
Average number of points per batch           ...       62
Average number of grid points per atom       ...     1729
UseSFitting                                  ... on

GRIDX 3
-------
General Integration Accuracy     IntAcc      ... 4.338
Radial Grid Type                 RadialGrid  ... OptM3 with GC (2021)
Angular Grid (max. ang.)         AngularGrid ... 3 (Lebedev-194)
Angular grid pruning method      GridPruning ... 4 (adaptive)
Weight generation scheme         WeightScheme... Becke
Basis function cutoff            BFCut       ... 1.0000e-11
Integration weight cutoff        WCut        ... 1.0000e-14
Angular grids for H and He will be reduced by one unit
Partially contracted basis set               ... on
Rotationally invariant grid construction     ... off

Total number of grid points                  ...    69160
Total number of batches                      ...     1091
Average number of points per batch           ...       63
Average number of grid points per atom       ...     3842
UseSFitting                                  ... on

Time for X-Grid setup             =    1.260 sec


--------------------
CPCM SOLVATION MODEL
--------------------
CPCM parameters:
  Epsilon                                         ...      78.3550
  Refrac                                          ...       1.3328
  Rsolv                                           ...       1.3000
  Surface type                                    ... GAUSSIAN VDW
  Epsilon function type                           ...         CPCM
Solvent:                                     ... WATER
SMD-CDS solvent descriptors:
  Soln                                       ...    1.3328
  Soln25                                     ...    1.3323
  Sola                                       ...    0.0000
  Solb                                       ...    0.0000
  Solg                                       ...    0.0000
  Solc                                       ...    0.0000
  Solh                                       ...    0.0000
Radii:
 Radius for C  used is    3.4960 Bohr (=   1.8500 Ang.)
 Radius for N  used is    3.5716 Bohr (=   1.8900 Ang.)
 Radius for O  used is    2.8724 Bohr (=   1.5200 Ang.)
 Radius for F  used is    3.2692 Bohr (=   1.7300 Ang.)
 Radius for H  used is    2.2677 Bohr (=   1.2000 Ang.)
 Radius for S  used is    4.7054 Bohr (=   2.4900 Ang.)
Calculating surface                               ...        done! (  0.0s)
GEPOL surface points                              ...         1157
GEPOL Volume                                      ...    1364.4579
GEPOL Surface-area                                ...     849.0965
Calculating surface distance matrix               ...        done! (  0.0s)
Performing Cholesky decomposition & store         ...        done! (  0.1s)
Overall time for CPCM initialization              ...                 0.1s
--------------
SCF ITERATIONS
--------------
ITER       Energy         Delta-E        Max-DP      RMS-DP      [F,P]     Damp
               ***  Starting incremental Fock matrix formation  ***
  0   -989.8659163219   0.000000000000 0.33165748  0.00314478  0.2373492 0.7000
  1   -990.0281885546  -0.162272232634 0.29456247  0.00256823  0.1157213 0.7000
                               ***Turning on DIIS***
  2   -990.1006546398  -0.072466085282 1.60629475  0.00909957  0.0599569 0.0000
  3   -990.2247442010  -0.124089561156 0.70487143  0.00372701  0.0550101 0.0000
  4   -990.2438991848  -0.019154983777 0.27186093  0.00142470  0.0124273 0.0000
  5   -990.2450749817  -0.001175796970 0.13103069  0.00070948  0.0061407 0.0000
                      *** Initiating the SOSCF procedure ***
                           *** Shutting down DIIS ***
                      *** Re-Reading the Fockian *** 
                      *** Removing any level shift *** 
ITER      Energy       Delta-E        Grad      Rot      Max-DP    RMS-DP
  6   -990.24530644  -0.0002314623  0.001502  0.001502  0.036483  0.000226
               *** Restarting incremental Fock matrix formation ***
  7   -990.24539912  -0.0000926781  0.000982  0.002411  0.020094  0.000213
  8   -990.24543871  -0.0000395849  0.000343  0.002525  0.012928  0.000190
  9   -990.24544488  -0.0000061744  0.000686  0.000722  0.007576  0.000098
 10   -990.24545173  -0.0000068493  0.000113  0.000188  0.003844  0.000030
 11   -990.24545179  -0.0000000556  0.000093  0.000127  0.003789  0.000020
 12   -990.24545216  -0.0000003688  0.000015  0.000040  0.004269  0.000027
 13   -990.24545216  -0.0000000007  0.000006  0.000031  0.008119  0.000057
 14   -990.24545216  -0.0000000031  0.000005  0.000012  0.005162  0.000030
                  ***Gradient check signals convergence***
              ***Rediagonalizing the Fockian in SOSCF/NRSCF***

               *****************************************************
               *                     SUCCESS                       *
               *           SCF CONVERGED AFTER  15 CYCLES          *
               *****************************************************

Old exchange energy                            =    -28.432826962 Eh
New exchange energy                            =    -28.432832402 Eh
Exchange energy change after final integration =     -0.000005440 Eh
Total energy after final integration           =   -990.245457608 Eh
Final COS-X integration done in                =     3.390 sec

SMD CDS free energy correction energy :                 5.87379     Kcal/mol
Total Energy after SMD CDS correction =              -990.236097123 Eh

----------------
TOTAL SCF ENERGY
----------------

Total Energy       :         -990.23609712 Eh          -26945.69410 eV

Components:
Nuclear Repulsion  :          672.00504002 Eh           18286.18679 eV
Electronic Energy  :        -1662.24113715 Eh          -45231.88089 eV
One Electron Energy:        -2703.08645903 Eh          -73554.72200 eV
Two Electron Energy:         1040.84532189 Eh           28322.84111 eV
Max COSX asymmetry :            0.00000226 Eh               0.00006 eV
CPCM Dielectric    :           -0.12740816 Eh              -3.46695 eV
SMD CDS (Gcds)     :            0.00936048 Eh               0.25471 eV

Virial components:
Potential Energy   :        -1977.47068696 Eh          -53809.71303 eV
Kinetic Energy     :          987.23458984 Eh           26864.01893 eV
Virial Ratio       :            2.00304032


DFT components:
N(Alpha)           :       48.999951676574 electrons
N(Beta)            :       48.999951676574 electrons
N(Total)           :       97.999903353148 electrons
E(XC)              :      -73.338587525295 Eh       
DFET-embed. en.    :        0.000000000000 Eh       
CPCM Solvation Model Properties:
Surface-charge          :            0.94492315
Charge-correction       :           -0.00551728 Eh              -0.15013 eV
Free-energy (cav+disp)  :            0.00936048 Eh               0.25471 eV

---------------
SCF CONVERGENCE
---------------

  Last Energy change         ...   -9.1554e-09  Tolerance :   1.0000e-08
  Last MAX-Density change    ...    7.1054e-15  Tolerance :   1.0000e-07
  Last RMS-Density change    ...    4.8258e-17  Tolerance :   5.0000e-09
  Last Orbital Gradient      ...    1.9738e-06  Tolerance :   1.0000e-05
  Last Orbital Rotation      ...    1.7702e-06  Tolerance :   1.0000e-05

             **** THE GBW FILE WAS UPDATED (structure_opt.gbw) ****
             **** DENSITY structure_opt.scfp WAS UPDATED ****
             **** ENERGY FILE WAS UPDATED (structure_opt.en.tmp) ****
             **** THE GBW FILE WAS UPDATED (structure_opt.gbw) ****
             **** DENSITY structure_opt.scfp WAS UPDATED ****
----------------
ORBITAL ENERGIES
----------------

  NO   OCC          E(Eh)            E(eV) 
   0   2.0000     -88.720193     -2414.1992 
   1   2.0000     -24.793325      -674.6607 
   2   2.0000     -19.275735      -524.5194 
   3   2.0000     -19.244051      -523.6573 
   4   2.0000     -14.669961      -399.1899 
   5   2.0000     -14.435526      -392.8106 
   6   2.0000     -10.437709      -284.0245 
   7   2.0000     -10.364176      -282.0236 
   8   2.0000     -10.338163      -281.3157 
   9   2.0000     -10.321194      -280.8540 
  10   2.0000     -10.290466      -280.0178 
  11   2.0000     -10.235824      -278.5309 
  12   2.0000      -7.916076      -215.4074 
  13   2.0000      -5.879218      -159.9817 
  14   2.0000      -5.871834      -159.7807 
  15   2.0000      -5.871826      -159.7805 
  16   2.0000      -1.396364       -37.9970 
  17   2.0000      -1.348363       -36.6908 
  18   2.0000      -1.151626       -31.3373 
  19   2.0000      -1.109246       -30.1841 
  20   2.0000      -1.008460       -27.4416 
  21   2.0000      -0.943397       -25.6711 
  22   2.0000      -0.874027       -23.7835 
  23   2.0000      -0.836323       -22.7575 
  24   2.0000      -0.796666       -21.6784 
  25   2.0000      -0.769212       -20.9313 
  26   2.0000      -0.706040       -19.2123 
  27   2.0000      -0.686620       -18.6839 
  28   2.0000      -0.669425       -18.2160 
  29   2.0000      -0.665220       -18.1015 
  30   2.0000      -0.661841       -18.0096 
  31   2.0000      -0.633345       -17.2342 
  32   2.0000      -0.620386       -16.8816 
  33   2.0000      -0.615232       -16.7413 
  34   2.0000      -0.563815       -15.3422 
  35   2.0000      -0.537107       -14.6154 
  36   2.0000      -0.527923       -14.3655 
  37   2.0000      -0.527893       -14.3647 
  38   2.0000      -0.494735       -13.4624 
  39   2.0000      -0.494213       -13.4482 
  40   2.0000      -0.456225       -12.4145 
  41   2.0000      -0.432621       -11.7722 
  42   2.0000      -0.421789       -11.4775 
  43   2.0000      -0.416468       -11.3327 
  44   2.0000      -0.407993       -11.1021 
  45   2.0000      -0.390770       -10.6334 
  46   2.0000      -0.384912       -10.4740 
  47   2.0000      -0.259034        -7.0487 
  48   2.0000      -0.258954        -7.0465 
  49   0.0000      -0.064872        -1.7653 
  50   0.0000       0.022683         0.6172 
  51   0.0000       0.050985         1.3874 
  52   0.0000       0.055545         1.5115 
  53   0.0000       0.060236         1.6391 
  54   0.0000       0.068269         1.8577 
  55   0.0000       0.073973         2.0129 
  56   0.0000       0.087081         2.3696 
  57   0.0000       0.090258         2.4560 
  58   0.0000       0.093825         2.5531 
  59   0.0000       0.100019         2.7217 
  60   0.0000       0.110919         3.0183 
  61   0.0000       0.123062         3.3487 
  62   0.0000       0.125103         3.4042 
  63   0.0000       0.130968         3.5638 
  64   0.0000       0.135095         3.6761 
  65   0.0000       0.143396         3.9020 
  66   0.0000       0.153135         4.1670 
  67   0.0000       0.161545         4.3959 
  68   0.0000       0.164486         4.4759 
  69   0.0000       0.165336         4.4990 
  70   0.0000       0.169803         4.6206 
  71   0.0000       0.171721         4.6728 
  72   0.0000       0.175939         4.7875 
  73   0.0000       0.180037         4.8991 
  74   0.0000       0.180776         4.9192 
  75   0.0000       0.186994         5.0884 
  76   0.0000       0.194159         5.2833 
  77   0.0000       0.195073         5.3082 
  78   0.0000       0.199407         5.4261 
  79   0.0000       0.203844         5.5469 
  80   0.0000       0.211291         5.7495 
  81   0.0000       0.220101         5.9893 
  82   0.0000       0.220726         6.0063 
  83   0.0000       0.223482         6.0812 
  84   0.0000       0.235872         6.4184 
  85   0.0000       0.243403         6.6233 
  86   0.0000       0.247175         6.7260 
  87   0.0000       0.259721         7.0674 
  88   0.0000       0.264750         7.2042 
  89   0.0000       0.266345         7.2476 
  90   0.0000       0.272219         7.4075 
  91   0.0000       0.277839         7.5604 
  92   0.0000       0.279300         7.6001 
  93   0.0000       0.280198         7.6246 
  94   0.0000       0.284202         7.7335 
  95   0.0000       0.296410         8.0657 
  96   0.0000       0.304564         8.2876 
  97   0.0000       0.316174         8.6035 
  98   0.0000       0.318325         8.6621 
  99   0.0000       0.326681         8.8894 
 100   0.0000       0.332151         9.0383 
 101   0.0000       0.338979         9.2241 
 102   0.0000       0.349804         9.5187 
 103   0.0000       0.356139         9.6910 
 104   0.0000       0.363170         9.8824 
 105   0.0000       0.364070         9.9068 
 106   0.0000       0.374043        10.1782 
 107   0.0000       0.376930        10.2568 
 108   0.0000       0.394801        10.7431 
 109   0.0000       0.405432        11.0324 
 110   0.0000       0.408454        11.1146 
 111   0.0000       0.419213        11.4074 
 112   0.0000       0.427864        11.6428 
 113   0.0000       0.437004        11.8915 
 114   0.0000       0.445788        12.1305 
 115   0.0000       0.452392        12.3102 
 116   0.0000       0.461259        12.5515 
 117   0.0000       0.463072        12.6008 
 118   0.0000       0.472936        12.8692 
 119   0.0000       0.481094        13.0912 
 120   0.0000       0.494555        13.4575 
 121   0.0000       0.500356        13.6154 
 122   0.0000       0.518436        14.1074 
 123   0.0000       0.528574        14.3832 
 124   0.0000       0.529613        14.4115 
 125   0.0000       0.550290        14.9741 
 126   0.0000       0.582554        15.8521 
 127   0.0000       0.612196        16.6587 
 128   0.0000       0.613761        16.7013 
 129   0.0000       0.619963        16.8701 
 130   0.0000       0.637578        17.3494 
 131   0.0000       0.641178        17.4473 
 132   0.0000       0.653801        17.7908 
 133   0.0000       0.657956        17.9039 
 134   0.0000       0.673745        18.3335 
 135   0.0000       0.702150        19.1065 
 136   0.0000       0.705009        19.1843 
 137   0.0000       0.725029        19.7290 
 138   0.0000       0.746450        20.3119 
 139   0.0000       0.770850        20.9759 
 140   0.0000       0.771270        20.9873 
 141   0.0000       0.778170        21.1751 
 142   0.0000       0.812771        22.1166 
 143   0.0000       0.827423        22.5153 
 144   0.0000       0.839848        22.8534 
 145   0.0000       0.852309        23.1925 
 146   0.0000       0.855265        23.2729 
 147   0.0000       0.874428        23.7944 
 148   0.0000       0.899518        24.4771 
 149   0.0000       0.914367        24.8812 
 150   0.0000       0.920138        25.0382 
 151   0.0000       0.937398        25.5079 
 152   0.0000       0.954168        25.9642 
 153   0.0000       0.955101        25.9896 
 154   0.0000       0.960706        26.1421 
 155   0.0000       0.975021        26.5317 
 156   0.0000       0.979663        26.6580 
 157   0.0000       0.983678        26.7672 
 158   0.0000       1.004236        27.3266 
 159   0.0000       1.004460        27.3327 
 160   0.0000       1.004740        27.3404 
 161   0.0000       1.034800        28.1583 
 162   0.0000       1.044892        28.4330 
 163   0.0000       1.067270        29.0419 
 164   0.0000       1.074995        29.2521 
 165   0.0000       1.079847        29.3841 
 166   0.0000       1.083650        29.4876 
 167   0.0000       1.140245        31.0276 
 168   0.0000       1.144436        31.1417 
 169   0.0000       1.156779        31.4776 
 170   0.0000       1.172840        31.9146 
 171   0.0000       1.190109        32.3845 
 172   0.0000       1.198682        32.6178 
 173   0.0000       1.210471        32.9386 
 174   0.0000       1.249448        33.9992 
 175   0.0000       1.262505        34.3545 
 176   0.0000       1.276846        34.7448 
 177   0.0000       1.279009        34.8036 
 178   0.0000       1.280013        34.8309 
 179   0.0000       1.292806        35.1790 
 180   0.0000       1.299269        35.3549 
 181   0.0000       1.357266        36.9331 
 182   0.0000       1.396195        37.9924 
 183   0.0000       1.407145        38.2904 
 184   0.0000       1.470915        40.0256 
 185   0.0000       1.525945        41.5231 
 186   0.0000       1.546573        42.0844 
 187   0.0000       1.586020        43.1578 
 188   0.0000       1.589768        43.2598 
 189   0.0000       1.590552        43.2811 
 190   0.0000       1.617845        44.0238 
 191   0.0000       1.632305        44.4173 
 192   0.0000       1.655403        45.0458 
 193   0.0000       1.657188        45.0944 
 194   0.0000       1.693535        46.0834 
 195   0.0000       1.694972        46.1225 
 196   0.0000       1.704543        46.3830 
 197   0.0000       1.716379        46.7050 
 198   0.0000       1.749049        47.5941 
 199   0.0000       1.761252        47.9261 
 200   0.0000       1.786867        48.6231 
 201   0.0000       1.809573        49.2410 
 202   0.0000       1.810823        49.2750 
 203   0.0000       1.813591        49.3503 
 204   0.0000       1.843287        50.1584 
 205   0.0000       1.848679        50.3051 
 206   0.0000       1.869152        50.8622 
 207   0.0000       1.909979        51.9732 
 208   0.0000       1.933993        52.6266 
 209   0.0000       1.946886        52.9775 
 210   0.0000       1.971113        53.6367 
 211   0.0000       1.974007        53.7155 
 212   0.0000       1.990874        54.1744 
 213   0.0000       2.010763        54.7156 
 214   0.0000       2.032033        55.2944 
 215   0.0000       2.045767        55.6682 
 216   0.0000       2.052964        55.8640 
 217   0.0000       2.110848        57.4391 
 218   0.0000       2.141024        58.2602 
 219   0.0000       2.148538        58.4647 
 220   0.0000       2.168646        59.0119 
 221   0.0000       2.173412        59.1416 
 222   0.0000       2.176849        59.2351 
 223   0.0000       2.206340        60.0376 
 224   0.0000       2.292767        62.3894 
 225   0.0000       2.323816        63.2342 
 226   0.0000       2.332608        63.4735 
 227   0.0000       2.333101        63.4869 
 228   0.0000       2.401520        65.3487 
 229   0.0000       2.430541        66.1384 
 230   0.0000       2.495704        67.9116 
 231   0.0000       2.563999        69.7700 
 232   0.0000       2.592363        70.5418 
 233   0.0000       2.595858        70.6369 
 234   0.0000       2.605828        70.9082 
 235   0.0000       2.627274        71.4918 
 236   0.0000       2.659252        72.3619 
 237   0.0000       2.661416        72.4208 
 238   0.0000       2.674366        72.7732 
 239   0.0000       2.674957        72.7893 
 240   0.0000       2.693973        73.3067 
 241   0.0000       2.769971        75.3747 
 242   0.0000       2.785338        75.7929 
 243   0.0000       2.828772        76.9748 
 244   0.0000       2.841081        77.3097 
 245   0.0000       2.858840        77.7930 
 246   0.0000       2.868421        78.0537 
 247   0.0000       2.883704        78.4696 
 248   0.0000       2.894797        78.7714 
 249   0.0000       2.902290        78.9753 
 250   0.0000       2.932648        79.8014 
 251   0.0000       2.937316        79.9284 
 252   0.0000       2.960071        80.5476 
 253   0.0000       2.978432        81.0473 
 254   0.0000       2.986966        81.2795 
 255   0.0000       3.002303        81.6968 
 256   0.0000       3.011236        81.9399 
 257   0.0000       3.098956        84.3269 
 258   0.0000       3.153087        85.7999 
 259   0.0000       3.188617        86.7667 
 260   0.0000       3.269131        88.9576 
 261   0.0000       3.307399        89.9989 
 262   0.0000       3.307739        90.0082 
 263   0.0000       3.340895        90.9104 
 264   0.0000       3.368557        91.6631 
 265   0.0000       3.454768        94.0090 
 266   0.0000       3.497437        95.1701 
 267   0.0000       3.559597        96.8616 
 268   0.0000       3.593991        97.7975 
 269   0.0000       3.680956       100.1639 
 270   0.0000       3.703768       100.7847 
 271   0.0000       3.753980       102.1510 
 272   0.0000       3.853517       104.8595 
 273   0.0000       3.883875       105.6856 
 274   0.0000       3.889705       105.8443 
 275   0.0000       3.892434       105.9185 
 276   0.0000       3.902919       106.2038 
 277   0.0000       3.924900       106.8020 
 278   0.0000       4.012973       109.1986 
 279   0.0000       4.060071       110.4801 
 280   0.0000       4.120062       112.1126 
 281   0.0000       4.144083       112.7662 
 282   0.0000       4.169093       113.4468 
 283   0.0000       4.406158       119.8976 
 284   0.0000       4.482293       121.9694 
 285   0.0000       4.503773       122.5539 
 286   0.0000       4.761105       129.5563 
 287   0.0000       4.942747       134.4990 
 288   0.0000       5.071811       138.0110 
 289   0.0000       5.099539       138.7655 
 290   0.0000       5.190406       141.2381 
 291   0.0000       5.219061       142.0179 
 292   0.0000       5.314841       144.6242 
 293   0.0000       5.698385       155.0609 
 294   0.0000       6.130338       166.8150 
 295   0.0000       6.425351       174.8427 
 296   0.0000       6.539390       177.9459 
 297   0.0000       6.841458       186.1655 
 298   0.0000       7.978844       217.1154 
 299   0.0000      17.546805       477.4728 
 300   0.0000      17.549781       477.5538 
 301   0.0000      17.638125       479.9578 
 302   0.0000      23.652423       643.6152 
 303   0.0000      23.890494       650.0934 
 304   0.0000      23.984201       652.6433 
 305   0.0000      24.031607       653.9333 
 306   0.0000      24.071217       655.0111 
 307   0.0000      24.181635       658.0158 
 308   0.0000      35.375377       962.6129 
 309   0.0000      35.657282       970.2840 
 310   0.0000      49.899263      1357.8280 
 311   0.0000      49.963263      1359.5695 
 312   0.0000      66.792738      1817.5228 
 313   0.0000     188.968001      5142.0807 

--------------------
FRAGMENT INFORMATION
--------------------
Fragment  1:    0   1   2   3   4   5 
Fragment  2:    6   7   8   9  10  11  12 
Fragment  3:   13  14  15  16 
Fragment  4:   17 


                    ********************************
                    * MULLIKEN POPULATION ANALYSIS *
                    ********************************

-------------------------
MULLIKEN FRAGMENT CHARGES
-------------------------
 Fragment   0 :  -0.437098
 Fragment   1 :   0.436581
 Fragment   2 :  -0.027649
 Fragment   3 :  -0.971835
Sum of fragment charges:   -1.0000000

---------------------------------
MULLIKEN FRAGMENT OVERLAP CHARGES
---------------------------------
                  0          1          2          3    
      0      21.281429   0.636378  -0.000260   0.000425
      1       0.636378  34.989146   0.000114  -0.000015
      2      -0.000260   0.000114  11.646237  -0.662234
      3       0.000425  -0.000015  -0.662234  17.302747

-----------------------
MULLIKEN ATOMIC CHARGES
-----------------------
   0 C :   -0.091805
   1 N :   -0.173740
   2 C :   -0.334762
   3 C :   -0.206782
   4 C :    0.404329
   5 C :   -0.034338
   6 N :   -0.071834
   7 O :   -0.053088
   8 O :   -0.238407
   9 F :   -0.101661
  10 H :    0.293068
  11 H :    0.282715
  12 H :    0.325788
  13 C :   -0.409053
  14 H :    0.126386
  15 H :    0.126840
  16 H :    0.128180
  17 S :   -0.971835
Sum of atomic charges:   -1.0000000

--------------------------------
MULLIKEN REDUCED ORBITAL CHARGES
--------------------------------
  0 C s       :     3.329624  s :     3.329624
      pz      :     0.677525  p :     2.601734
      px      :     0.981606
      py      :     0.942603
      dz2     :     0.052762  d :     0.160446
      dxz     :     0.048835
      dyz     :     0.028426
      dx2y2   :     0.013770
      dxy     :     0.016652
  1 N s       :     3.599712  s :     3.599712
      pz      :     1.140130  p :     3.543502
      px      :     1.238570
      py      :     1.164802
      dz2     :     0.008167  d :     0.030526
      dxz     :     0.007240
      dyz     :     0.004755
      dx2y2   :     0.005504
      dxy     :     0.004860
  2 C s       :     3.408300  s :     3.408300
      pz      :     0.815405  p :     2.842310
      px      :     1.174260
      py      :     0.852645
      dz2     :     0.023581  d :     0.084151
      dxz     :     0.032197
      dyz     :     0.014800
      dx2y2   :     0.007223
      dxy     :     0.006350
  3 C s       :     3.169412  s :     3.169412
      pz      :     1.144044  p :     2.984212
      px      :     0.872001
      py      :     0.968167
      dz2     :     0.015294  d :     0.053158
      dxz     :     0.017415
      dyz     :     0.005093
      dx2y2   :     0.008212
      dxy     :     0.007144
  4 C s       :     2.533120  s :     2.533120
      pz      :     0.899618  p :     3.005453
      px      :     1.261689
      py      :     0.844146
      dz2     :     0.016550  d :     0.057099
      dxz     :     0.015857
      dyz     :     0.010571
      dx2y2   :     0.007215
      dxy     :     0.006906
  5 C s       :     3.282656  s :     3.282656
      pz      :     1.084449  p :     2.678542
      px      :     0.469228
      py      :     1.124864
      dz2     :     0.013626  d :     0.073140
      dxz     :     0.029770
      dyz     :     0.010345
      dx2y2   :     0.011215
      dxy     :     0.008185
  6 N s       :     3.588297  s :     3.588297
      pz      :     1.058949  p :     3.374540
      px      :     1.214300
      py      :     1.101291
      dz2     :     0.027720  d :     0.108998
      dxz     :     0.039359
      dyz     :     0.023079
      dx2y2   :     0.008551
      dxy     :     0.010289
  7 O s       :     3.778627  s :     3.778627
      pz      :     1.026624  p :     4.255765
      px      :     1.828367
      py      :     1.400774
      dz2     :     0.009710  d :     0.018696
      dxz     :     0.003512
      dyz     :     0.005305
      dx2y2   :     0.000102
      dxy     :     0.000067
  8 O s       :     3.824381  s :     3.824381
      pz      :     1.624925  p :     4.401912
      px      :     1.218202
      py      :     1.558785
      dz2     :     0.001059  d :     0.012114
      dxz     :     0.004900
      dyz     :     0.000879
      dx2y2   :     0.003118
      dxy     :     0.002159
  9 F s       :     3.918585  s :     3.918585
      pz      :     1.389113  p :     5.177744
      px      :     1.915728
      py      :     1.872904
      dz2     :     0.003097  d :     0.005332
      dxz     :     0.000997
      dyz     :     0.001201
      dx2y2   :     0.000027
      dxy     :     0.000009
 10 H s       :     0.683027  s :     0.683027
      pz      :     0.005482  p :     0.023905
      px      :     0.014128
      py      :     0.004295
 11 H s       :     0.692320  s :     0.692320
      pz      :     0.016374  p :     0.024965
      px      :     0.003656
      py      :     0.004935
 12 H s       :     0.648690  s :     0.648690
      pz      :     0.007744  p :     0.025522
      px      :     0.013376
      py      :     0.004401
 13 C s       :     3.268931  s :     3.268931
      pz      :     1.051973  p :     3.087488
      px      :     1.052718
      py      :     0.982797
      dz2     :     0.004645  d :     0.052635
      dxz     :     0.013521
      dyz     :     0.013354
      dx2y2   :     0.009550
      dxy     :     0.011565
 14 H s       :     0.850897  s :     0.850897
      pz      :     0.009878  p :     0.022717
      px      :     0.005604
      py      :     0.007235
 15 H s       :     0.850391  s :     0.850391
      pz      :     0.006328  p :     0.022769
      px      :     0.009717
      py      :     0.006724
 16 H s       :     0.849109  s :     0.849109
      pz      :     0.008500  p :     0.022711
      px      :     0.009496
      py      :     0.004715
 17 S s       :     6.020584  s :     6.020584
      pz      :     3.893035  p :    10.919848
      px      :     3.903642
      py      :     3.123171
      dz2     :     0.003843  d :     0.031403
      dxz     :     0.001425
      dyz     :     0.008013
      dx2y2   :     0.010579
      dxy     :     0.007543


                     *******************************
                     * LOEWDIN POPULATION ANALYSIS *
                     *******************************

------------------------
LOEWDIN FRAGMENT CHARGES
------------------------
 Fragment   0 :   0.057762
 Fragment   1 :  -0.058334
 Fragment   2 :  -0.355189
 Fragment   3 :  -0.644239

----------------------------
LOEWDIN FRAGMENT BOND ORDERS
----------------------------
                  0          1          2          3    
      0      56.962568   6.779206   0.000312   0.001230
      1       6.779206  43.787562   0.000056   0.000285
      2       0.000312   0.000056  15.419503   1.743064
      3       0.001230   0.000285   1.743064  16.644239

----------------------
LOEWDIN ATOMIC CHARGES
----------------------
   0 C :    0.111100
   1 N :   -0.111018
   2 C :    0.077128
   3 C :   -0.033718
   4 C :    0.078084
   5 C :   -0.063814
   6 N :    0.241451
   7 O :   -0.154346
   8 O :   -0.339071
   9 F :   -0.078066
  10 H :    0.086990
  11 H :    0.084572
  12 H :    0.100136
  13 C :   -0.358255
  14 H :    0.001050
  15 H :    0.000811
  16 H :    0.001205
  17 S :   -0.644239

-------------------------------
LOEWDIN REDUCED ORBITAL CHARGES
-------------------------------
  0 C s       :     2.743870  s :     2.743870
      pz      :     0.849358  p :     2.815892
      px      :     1.080640
      py      :     0.885894
      dz2     :     0.112525  d :     0.329138
      dxz     :     0.100712
      dyz     :     0.050387
      dx2y2   :     0.033886
      dxy     :     0.031628
  1 N s       :     3.151192  s :     3.151192
      pz      :     1.301092  p :     3.902983
      px      :     1.416669
      py      :     1.185222
      dz2     :     0.017387  d :     0.056843
      dxz     :     0.015722
      dyz     :     0.007786
      dx2y2   :     0.009549
      dxy     :     0.006398
  2 C s       :     2.786979  s :     2.786979
      pz      :     1.033058  p :     2.954054
      px      :     1.096596
      py      :     0.824400
      dz2     :     0.060306  d :     0.181838
      dxz     :     0.069054
      dyz     :     0.027969
      dx2y2   :     0.014020
      dxy     :     0.010490
  3 C s       :     2.781213  s :     2.781213
      pz      :     1.081387  p :     3.128152
      px      :     1.092137
      py      :     0.954628
      dz2     :     0.034116  d :     0.124352
      dxz     :     0.045070
      dyz     :     0.008015
      dx2y2   :     0.022214
      dxy     :     0.014937
  4 C s       :     2.779267  s :     2.779267
      pz      :     1.065785  p :     3.014349
      px      :     1.108291
      py      :     0.840274
      dz2     :     0.040910  d :     0.128300
      dxz     :     0.039160
      dyz     :     0.021258
      dx2y2   :     0.015049
      dxy     :     0.011924
  5 C s       :     2.757917  s :     2.757917
      pz      :     1.088461  p :     3.125570
      px      :     0.957195
      py      :     1.079914
      dz2     :     0.039906  d :     0.180328
      dxz     :     0.071781
      dyz     :     0.019842
      dx2y2   :     0.031420
      dxy     :     0.017379
  6 N s       :     3.052070  s :     3.052070
      pz      :     1.205966  p :     3.500117
      px      :     1.215101
      py      :     1.079050
      dz2     :     0.060435  d :     0.206361
      dxz     :     0.076187
      dyz     :     0.035698
      dx2y2   :     0.017513
      dxy     :     0.016528
  7 O s       :     3.581213  s :     3.581213
      pz      :     1.283746  p :     4.540823
      px      :     1.838857
      py      :     1.418220
      dz2     :     0.020436  d :     0.032310
      dxz     :     0.005157
      dyz     :     0.006528
      dx2y2   :     0.000119
      dxy     :     0.000071
  8 O s       :     3.667369  s :     3.667369
      pz      :     1.709924  p :     4.651221
      px      :     1.369878
      py      :     1.571418
      dz2     :     0.001545  d :     0.020481
      dxz     :     0.009263
      dyz     :     0.001173
      dx2y2   :     0.005711
      dxy     :     0.002789
  9 F s       :     3.714917  s :     3.714917
      pz      :     1.535216  p :     5.355780
      px      :     1.934332
      py      :     1.886231
      dz2     :     0.004766  d :     0.007370
      dxz     :     0.001184
      dyz     :     0.001375
      dx2y2   :     0.000037
      dxy     :     0.000009
 10 H s       :     0.842604  s :     0.842604
      pz      :     0.016677  p :     0.070406
      px      :     0.042315
      py      :     0.011414
 11 H s       :     0.842978  s :     0.842978
      pz      :     0.047839  p :     0.072450
      px      :     0.011208
      py      :     0.013402
 12 H s       :     0.826640  s :     0.826640
      pz      :     0.023099  p :     0.073225
      px      :     0.038707
      py      :     0.011418
 13 C s       :     2.857920  s :     2.857920
      pz      :     1.121924  p :     3.393440
      px      :     1.121567
      py      :     1.149949
      dz2     :     0.009028  d :     0.106895
      dxz     :     0.026494
      dyz     :     0.027395
      dx2y2   :     0.020293
      dxy     :     0.023685
 14 H s       :     0.927147  s :     0.927147
      pz      :     0.031027  p :     0.071802
      px      :     0.016900
      py      :     0.023875
 15 H s       :     0.927241  s :     0.927241
      pz      :     0.019441  p :     0.071948
      px      :     0.030460
      py      :     0.022046
 16 H s       :     0.926987  s :     0.926987
      pz      :     0.026883  p :     0.071808
      px      :     0.030246
      py      :     0.014679
 17 S s       :     5.613211  s :     5.613211
      pz      :     3.858730  p :    10.993887
      px      :     3.866333
      py      :     3.268825
      dz2     :     0.004546  d :     0.037141
      dxz     :     0.001654
      dyz     :     0.009432
      dx2y2   :     0.012643
      dxy     :     0.008866


                      *****************************
                      * MAYER POPULATION ANALYSIS *
                      *****************************

  NA   - Mulliken gross atomic population
  ZA   - Total nuclear charge
  QA   - Mulliken gross atomic charge
  VA   - Mayer's total valence
  BVA  - Mayer's bonded valence
  FA   - Mayer's free valence

  ATOM       NA         ZA         QA         VA         BVA        FA
  0 C      6.0918     6.0000    -0.0918     4.3797     4.3797     0.0000
  1 N      7.1737     7.0000    -0.1737     2.6929     2.6929     0.0000
  2 C      6.3348     6.0000    -0.3348     4.0229     4.0229     0.0000
  3 C      6.2068     6.0000    -0.2068     4.2775     4.2775     0.0000
  4 C      5.5957     6.0000     0.4043     4.1954     4.1954    -0.0000
  5 C      6.0343     6.0000    -0.0343     3.2918     3.2918     0.0000
  6 N      7.0718     7.0000    -0.0718     3.9197     3.9197    -0.0000
  7 O      8.0531     8.0000    -0.0531     2.1954     2.1954     0.0000
  8 O      8.2384     8.0000    -0.2384     1.9955     1.9955    -0.0000
  9 F      9.1017     9.0000    -0.1017     0.9625     0.9625     0.0000
 10 H      0.7069     1.0000     0.2931     0.8775     0.8775     0.0000
 11 H      0.7173     1.0000     0.2827     0.9003     0.9003     0.0000
 12 H      0.6742     1.0000     0.3258     0.8355     0.8355     0.0000
 13 C      6.4091     6.0000    -0.4091     3.5741     3.5741     0.0000
 14 H      0.8736     1.0000     0.1264     0.9433     0.9433     0.0000
 15 H      0.8732     1.0000     0.1268     0.9423     0.9423     0.0000
 16 H      0.8718     1.0000     0.1282     0.9394     0.9394     0.0000
 17 S     16.9718    16.0000    -0.9718     0.5976     0.5976     0.0000

  Mayer bond orders larger than 0.100000
B(  0-C ,  1-N ) :   1.3151 B(  0-C ,  2-C ) :   0.2121 B(  0-C ,  3-C ) :   0.1321 
B(  0-C ,  4-C ) :   0.3031 B(  0-C ,  5-C ) :   1.1957 B(  0-C ,  6-N ) :  -0.1809 
B(  0-C ,  9-F ) :   1.4189 B(  1-N ,  2-C ) :   1.2008 B(  1-N ,  5-C ) :   0.1409 
B(  2-C ,  3-C ) :   1.5648 B(  2-C , 10-H ) :   0.8861 B(  3-C ,  4-C ) :   1.5050 
B(  3-C ,  8-O ) :   0.1347 B(  3-C , 11-H ) :   0.8464 B(  4-C ,  5-C ) :   1.5944 
B(  4-C ,  6-N ) :  -0.1472 B(  4-C ,  8-O ) :   0.1592 B(  4-C ,  9-F ) :  -0.1180 
B(  4-C , 12-H ) :   0.7487 B(  5-C ,  6-N ) :   0.7564 B(  5-C ,  8-O ) :  -0.1595 
B(  5-C ,  9-F ) :  -0.3705 B(  5-C , 12-H ) :   0.1213 B(  6-N ,  7-O ) :   1.8507 
B(  6-N ,  8-O ) :   1.6535 B(  7-O ,  8-O ) :   0.2599 B( 13-C , 14-H ) :   0.9812 
B( 13-C , 15-H ) :   0.9825 B( 13-C , 16-H ) :   0.9826 B( 13-C , 17-S ) :   0.6286 


-------
TIMINGS
-------

Total SCF time: 0 days 0 hours 0 min 36 sec 

Total time                  ....      36.853 sec
Sum of individual times     ....      35.820 sec  ( 97.2%)

Fock matrix formation       ....      32.819 sec  ( 89.1%)
  Split-RI-J                ....       2.479 sec  (  7.6% of F)
  Chain of spheres X        ....      21.425 sec  ( 65.3% of F)
  XC integration            ....       4.400 sec  ( 13.4% of F)
    Basis function eval.    ....       0.419 sec  (  9.5% of XC)
    Density eval.           ....       0.457 sec  ( 10.4% of XC)
    XC-Functional eval.     ....       0.235 sec  (  5.3% of XC)
[...]
 289   0.0000       5.121800       139.3713 
 290   0.0000       5.205458       141.6477 
 291   0.0000       5.281371       143.7134 
 292   0.0000       5.370644       146.1427 
 293   0.0000       5.848763       159.1529 
 294   0.0000       6.340129       172.5237 
 295   0.0000       6.434597       175.0943 
 296   0.0000       6.550078       178.2367 
 297   0.0000       6.862906       186.7492 
 298   0.0000       7.978874       217.1162 
 299   0.0000      17.546858       477.4743 
 300   0.0000      17.549825       477.5550 
 301   0.0000      17.638252       479.9612 
 302   0.0000      23.703686       645.0101 
 303   0.0000      23.954422       651.8330 
 304   0.0000      24.020094       653.6200 
 305   0.0000      24.030135       653.8932 
 306   0.0000      24.134265       656.7267 
 307   0.0000      24.245880       659.7639 
 308   0.0000      35.451617       964.6875 
 309   0.0000      35.737010       972.4535 
 310   0.0000      49.923012      1358.4742 
 311   0.0000      50.030610      1361.4021 
 312   0.0000      66.806578      1817.8994 
 313   0.0000     188.968046      5142.0820 

--------------------
FRAGMENT INFORMATION
--------------------
Fragment  1:    0   1   2   3   4   5 
Fragment  2:    6   7   8   9  10  11  12 
Fragment  3:   13  14  15  16 
Fragment  4:   17 


                    ********************************
                    * MULLIKEN POPULATION ANALYSIS *
                    ********************************

-------------------------
MULLIKEN FRAGMENT CHARGES
-------------------------
 Fragment   0 :  -0.475067
 Fragment   1 :   0.474505
 Fragment   2 :  -0.028253
 Fragment   3 :  -0.971185
Sum of fragment charges:   -1.0000000

---------------------------------
MULLIKEN FRAGMENT OVERLAP CHARGES
---------------------------------
                  0          1          2          3    
      0      18.840616   0.530321  -0.000291   0.000217
      1       0.530321  35.053956   0.000101  -0.000077
      2      -0.000291   0.000101  11.646747  -0.660577
      3       0.000217  -0.000077  -0.660577  17.301404

-----------------------
MULLIKEN ATOMIC CHARGES
-----------------------
   0 C :   -0.058991
   1 N :   -0.165163
   2 C :   -0.316931
   3 C :   -0.282909
   4 C :    0.485883
   5 C :   -0.136956
   6 N :   -0.008971
   7 O :   -0.164155
   8 O :   -0.117540
   9 F :   -0.118921
  10 H :    0.281565
  11 H :    0.279686
  12 H :    0.322840
  13 C :   -0.409523
  14 H :    0.126437
  15 H :    0.126696
  16 H :    0.128137
  17 S :   -0.971185
Sum of atomic charges:   -1.0000000

--------------------------------
MULLIKEN REDUCED ORBITAL CHARGES
--------------------------------
  0 C s       :     3.287545  s :     3.287545
      pz      :     0.671694  p :     2.601527
      px      :     0.981747
      py      :     0.948086
      dz2     :     0.057291  d :     0.169918
      dxz     :     0.050338
      dyz     :     0.029313
      dx2y2   :     0.014581
      dxy     :     0.018395
  1 N s       :     3.580377  s :     3.580377
      pz      :     1.146328  p :     3.550283
      px      :     1.249225
      py      :     1.154731
      dz2     :     0.008678  d :     0.034503
      dxz     :     0.008693
      dyz     :     0.005260
      dx2y2   :     0.006075
      dxy     :     0.005797
  2 C s       :     3.344868  s :     3.344868
      pz      :     0.827948  p :     2.883118
      px      :     1.184379
      py      :     0.870791
      dz2     :     0.025068  d :     0.088944
      dxz     :     0.033632
      dyz     :     0.015831
      dx2y2   :     0.007930
      dxy     :     0.006484
  3 C s       :     3.226528  s :     3.226528
      pz      :     1.144456  p :     3.000745
      px      :     0.885810
      py      :     0.970479
      dz2     :     0.015909  d :     0.055637
      dxz     :     0.018404
      dyz     :     0.005627
      dx2y2   :     0.008182
      dxy     :     0.007515
  4 C s       :     2.414829  s :     2.414829
      pz      :     0.929538  p :     3.039612
      px      :     1.262862
      py      :     0.847212
      dz2     :     0.017290  d :     0.059675
      dxz     :     0.016037
      dyz     :     0.011327
      dx2y2   :     0.007792
      dxy     :     0.007229
  5 C s       :     3.337666  s :     3.337666
      pz      :     1.106866  p :     2.725733
      px      :     0.489108
      py      :     1.129760
      dz2     :     0.013101  d :     0.073557
      dxz     :     0.031033
      dyz     :     0.010249
      dx2y2   :     0.011093
      dxy     :     0.008081
  6 N s       :     3.486951  s :     3.486951
      pz      :     1.041243  p :     3.383139
      px      :     1.234320
      py      :     1.107577
      dz2     :     0.037998  d :     0.138881
      dxz     :     0.045181
      dyz     :     0.028969
      dx2y2   :     0.012006
      dxy     :     0.014728
  7 O s       :     3.804595  s :     3.804595
      pz      :     1.023194  p :     4.341395
      px      :     1.841010
      py      :     1.477191
      dz2     :     0.009762  d :     0.018165
      dxz     :     0.003249
      dyz     :     0.005001
      dx2y2   :     0.000093
      dxy     :     0.000060
  8 O s       :     3.784151  s :     3.784151
      pz      :     1.553447  p :     4.313249
      px      :     1.328980
      py      :     1.430822
      dz2     :     0.002410  d :     0.020139
      dxz     :     0.007390
      dyz     :     0.002059
      dx2y2   :     0.004229
      dxy     :     0.004051
  9 F s       :     3.917871  s :     3.917871
      pz      :     1.399759  p :     5.195822
      px      :     1.918454
      py      :     1.877609
      dz2     :     0.003043  d :     0.005228
      dxz     :     0.000972
      dyz     :     0.001172
      dx2y2   :     0.000030
      dxy     :     0.000010
 10 H s       :     0.695139  s :     0.695139
      pz      :     0.004558  p :     0.023296
      px      :     0.014461
      py      :     0.004277
 11 H s       :     0.695122  s :     0.695122
      pz      :     0.016415  p :     0.025192
      px      :     0.003785
      py      :     0.004991
 12 H s       :     0.651322  s :     0.651322
      pz      :     0.007358  p :     0.025837
      px      :     0.014045
      py      :     0.004435
 13 C s       :     3.269708  s :     3.269708
      pz      :     1.051783  p :     3.087184
      px      :     1.051715
      py      :     0.983686
      dz2     :     0.004434  d :     0.052631
      dxz     :     0.013485
      dyz     :     0.013668
      dx2y2   :     0.009735
      dxy     :     0.011309
 14 H s       :     0.850859  s :     0.850859
      pz      :     0.009931  p :     0.022704
      px      :     0.005489
      py      :     0.007284
 15 H s       :     0.850570  s :     0.850570
      pz      :     0.006535  p :     0.022734
      px      :     0.009481
      py      :     0.006717
 16 H s       :     0.849153  s :     0.849153
      pz      :     0.008231  p :     0.022710
      px      :     0.009747
      py      :     0.004732
 17 S s       :     6.020075  s :     6.020075
      pz      :     3.893032  p :    10.919700
      px      :     3.893466
      py      :     3.133203
      dz2     :     0.003836  d :     0.031409
      dxz     :     0.001510
      dyz     :     0.007938
      dx2y2   :     0.010251
      dxy     :     0.007874


                     *******************************
                     * LOEWDIN POPULATION ANALYSIS *
                     *******************************

------------------------
LOEWDIN FRAGMENT CHARGES
------------------------
 Fragment   0 :   0.031388
 Fragment   1 :  -0.031971
 Fragment   2 :  -0.355237
 Fragment   3 :  -0.644180

----------------------------
LOEWDIN FRAGMENT BOND ORDERS
----------------------------
                  0          1          2          3    
      0      57.201968   6.725553   0.000318   0.001236
      1       6.725553  44.208873   0.000056   0.000287
      2       0.000318   0.000056  15.419015   1.743258
      3       0.001236   0.000287   1.743258  16.644180

----------------------
LOEWDIN ATOMIC CHARGES
----------------------
   0 C :    0.081786
   1 N :   -0.081127
   2 C :    0.056193
   3 C :   -0.034059
   4 C :    0.073199
   5 C :   -0.064604
   6 N :    0.202736
   7 O :   -0.220053
   8 O :   -0.194368
   9 F :   -0.088843
  10 H :    0.083360
  11 H :    0.085672
  12 H :    0.099526
  13 C :   -0.358501
  14 H :    0.001078
  15 H :    0.001015
  16 H :    0.001170
  17 S :   -0.644180

-------------------------------
LOEWDIN REDUCED ORBITAL CHARGES
-------------------------------
  0 C s       :     2.731307  s :     2.731307
      pz      :     0.851736  p :     2.836249
      px      :     1.096236
      py      :     0.888276
      dz2     :     0.121974  d :     0.350658
      dxz     :     0.104029
      dyz     :     0.051964
      dx2y2   :     0.037197
      dxy     :     0.035494
  1 N s       :     3.108633  s :     3.108633
      pz      :     1.298403  p :     3.907545
      px      :     1.435119
      py      :     1.174023
      dz2     :     0.018887  d :     0.064949
      dxz     :     0.018550
      dyz     :     0.009124
      dx2y2   :     0.010688
      dxy     :     0.007699
  2 C s       :     2.774478  s :     2.774478
      pz      :     1.042361  p :     2.975668
      px      :     1.093181
      py      :     0.840126
      dz2     :     0.063989  d :     0.193661
      dxz     :     0.073180
      dyz     :     0.030500
      dx2y2   :     0.015295
      dxy     :     0.010696
  3 C s       :     2.772466  s :     2.772466
      pz      :     1.079511  p :     3.132114
      px      :     1.097023
      py      :     0.955580
      dz2     :     0.035213  d :     0.129480
      dxz     :     0.047291
      dyz     :     0.008722
      dx2y2   :     0.022455
      dxy     :     0.015799
  4 C s       :     2.769337  s :     2.769337
      pz      :     1.074798  p :     3.022664
      px      :     1.105460
      py      :     0.842406
      dz2     :     0.042717  d :     0.134800
      dxz     :     0.040445
      dyz     :     0.022890
      dx2y2   :     0.016180
      dxy     :     0.012567
  5 C s       :     2.753202  s :     2.753202
      pz      :     1.089641  p :     3.129416
      px      :     0.958769
      py      :     1.081006
      dz2     :     0.039532  d :     0.181985
      dxz     :     0.074351
      dyz     :     0.019896
      dx2y2   :     0.031045
      dxy     :     0.017162
  6 N s       :     2.997902  s :     2.997902
      pz      :     1.219820  p :     3.530652
      px      :     1.230719
      py      :     1.080114
      dz2     :     0.080466  d :     0.268710
      dxz     :     0.092660
      dyz     :     0.045802
      dx2y2   :     0.025774
      dxy     :     0.024008
  7 O s       :     3.574498  s :     3.574498
      pz      :     1.274855  p :     4.613930
      px      :     1.848589
      py      :     1.490486
      dz2     :     0.020491  d :     0.031625
      dxz     :     0.004802
      dyz     :     0.006155
      dx2y2   :     0.000113
      dxy     :     0.000063
  8 O s       :     3.548726  s :     3.548726
      pz      :     1.675949  p :     4.610372
      px      :     1.485827
      py      :     1.448596
      dz2     :     0.003663  d :     0.035270
      dxz     :     0.015212
      dyz     :     0.002813
      dx2y2   :     0.008253
      dxy     :     0.005330
  9 F s       :     3.713739  s :     3.713739
      pz      :     1.540085  p :     5.367849
      px      :     1.937242
      py      :     1.890522
      dz2     :     0.004683  d :     0.007254
      dxz     :     0.001172
      dyz     :     0.001349
      dx2y2   :     0.000040
      dxy     :     0.000010
 10 H s       :     0.848034  s :     0.848034
      pz      :     0.014246  p :     0.068607
      px      :     0.042825
      py      :     0.011536
 11 H s       :     0.842155  s :     0.842155
      pz      :     0.047405  p :     0.072173
      px      :     0.011360
      py      :     0.013408
 12 H s       :     0.827073  s :     0.827073
      pz      :     0.021603  p :     0.073402
      px      :     0.040338
      py      :     0.011461
 13 C s       :     2.858383  s :     2.858383
      pz      :     1.121833  p :     3.393253
      px      :     1.121824
      py      :     1.149596
      dz2     :     0.008594  d :     0.106864
      dxz     :     0.026434
      dyz     :     0.028013
      dx2y2   :     0.020581
      dxy     :     0.023242
 14 H s       :     0.927161  s :     0.927161
      pz      :     0.031205  p :     0.071761
      px      :     0.016523
      py      :     0.024033
 15 H s       :     0.927207  s :     0.927207
      pz      :     0.020133  p :     0.071778
      px      :     0.029649
      py      :     0.021996
 16 H s       :     0.927049  s :     0.927049
      pz      :     0.025946  p :     0.071781
      px      :     0.031127
      py      :     0.014707
 17 S s       :     5.613216  s :     5.613216
      pz      :     3.858769  p :    10.993813
      px      :     3.858532
      py      :     3.276512
      dz2     :     0.004538  d :     0.037151
      dxz     :     0.001754
      dyz     :     0.009344
      dx2y2   :     0.012237
      dxy     :     0.009278


                      *****************************
                      * MAYER POPULATION ANALYSIS *
                      *****************************

  NA   - Mulliken gross atomic population
  ZA   - Total nuclear charge
  QA   - Mulliken gross atomic charge
  VA   - Mayer's total valence
  BVA  - Mayer's bonded valence
  FA   - Mayer's free valence

  ATOM       NA         ZA         QA         VA         BVA        FA
  0 C      6.0590     6.0000    -0.0590     4.3013     4.3013    -0.0000
  1 N      7.1652     7.0000    -0.1652     2.7161     2.7161    -0.0000
  2 C      6.3169     6.0000    -0.3169     4.0651     4.0651    -0.0000
  3 C      6.2829     6.0000    -0.2829     4.4400     4.4400     0.0000
  4 C      5.5141     6.0000     0.4859     4.0932     4.0932     0.0000
  5 C      6.1370     6.0000    -0.1370     3.3357     3.3357    -0.0000
  6 N      7.0090     7.0000    -0.0090     4.0153     4.0153     0.0000
  7 O      8.1642     8.0000    -0.1642     2.1108     2.1108     0.0000
  8 O      8.1175     8.0000    -0.1175     2.1934     2.1934     0.0000
  9 F      9.1189     9.0000    -0.1189     0.9246     0.9246     0.0000
 10 H      0.7184     1.0000     0.2816     0.8792     0.8792    -0.0000
 11 H      0.7203     1.0000     0.2797     0.9056     0.9056    -0.0000
 12 H      0.6772     1.0000     0.3228     0.8368     0.8368    -0.0000
 13 C      6.4095     6.0000    -0.4095     3.5749     3.5749    -0.0000
 14 H      0.8736     1.0000     0.1264     0.9433     0.9433    -0.0000
 15 H      0.8733     1.0000     0.1267     0.9424     0.9424    -0.0000
 16 H      0.8719     1.0000     0.1281     0.9394     0.9394     0.0000
 17 S     16.9712    16.0000    -0.9712     0.5976     0.5976    -0.0000

  Mayer bond orders larger than 0.100000
B(  0-C ,  1-N ) :   1.3213 B(  0-C ,  2-C ) :   0.1924 B(  0-C ,  3-C ) :   0.1662 
B(  0-C ,  4-C ) :   0.2498 B(  0-C ,  5-C ) :   1.2311 B(  0-C ,  6-N ) :  -0.1844 
B(  0-C ,  8-O ) :  -0.1093 B(  0-C ,  9-F ) :   1.3665 B(  1-N ,  2-C ) :   1.1850 
B(  1-N ,  5-C ) :   0.1601 B(  2-C ,  3-C ) :   1.6474 B(  2-C ,  5-C ) :   0.1072 
B(  2-C , 10-H ) :   0.8866 B(  3-C ,  4-C ) :   1.4380 B(  3-C ,  5-C ) :   0.1007 
B(  3-C ,  8-O ) :   0.1621 B(  3-C , 11-H ) :   0.8426 B(  4-C ,  5-C ) :   1.5627 
B(  4-C ,  8-O ) :   0.2470 B(  4-C ,  9-F ) :  -0.1259 B(  4-C , 12-H ) :   0.7114 
B(  5-C ,  6-N ) :   0.6727 B(  5-C ,  7-O ) :  -0.1096 B(  5-C ,  8-O ) :  -0.2129 
B(  5-C ,  9-F ) :  -0.3422 B(  5-C , 12-H ) :   0.1479 B(  6-N ,  7-O ) :   1.8225 
B(  6-N ,  8-O ) :   1.8439 B(  7-O ,  8-O ) :   0.2470 B( 13-C , 14-H ) :   0.9813 
B( 13-C , 15-H ) :   0.9827 B( 13-C , 16-H ) :   0.9827 B( 13-C , 17-S ) :   0.6290 


-------
TIMINGS
-------

Total SCF time: 0 days 0 hours 0 min 11 sec 

Total time                  ....      11.564 sec
Sum of individual times     ....      10.793 sec  ( 93.3%)

Fock matrix formation       ....       8.694 sec  ( 75.2%)
  Split-RI-J                ....       0.509 sec  (  5.9% of F)
  Chain of spheres X        ....       6.815 sec  ( 78.4% of F)
  XC integration            ....       0.707 sec  (  8.1% of F)
    Basis function eval.    ....       0.064 sec  (  9.1% of XC)
    Density eval.           ....       0.325 sec  ( 46.0% of XC)
    XC-Functional eval.     ....       0.022 sec  (  3.1% of XC)
    XC-Potential eval.      ....       0.057 sec  (  8.1% of XC)
Diagonalization             ....       0.026 sec  (  0.2%)
Density matrix formation    ....       0.005 sec  (  0.0%)
Population analysis         ....       0.081 sec  (  0.7%)
Initial guess               ....       0.046 sec  (  0.4%)
Orbital Transformation      ....       0.000 sec  (  0.0%)
Orbital Orthonormalization  ....       0.033 sec  (  0.3%)
DIIS solution               ....       0.011 sec  (  0.1%)
SOSCF solution              ....       0.037 sec  (  0.3%)
Grid generation             ....       1.893 sec  ( 16.4%)

Maximum memory used throughout the entire SCF-calculation: 68.3 MB

-------------------------   --------------------
FINAL SINGLE POINT ENERGY      -990.265381185008
-------------------------   --------------------

                                *** OPTIMIZATION RUN DONE ***

                            ***************************************
                            *     ORCA property calculations      *
                            ***************************************

                                    ---------------------
                                    Active property flags
                                    ---------------------
   (+) Dipole Moment


------------------------------------------------------------------------------
                       ORCA ELECTRIC PROPERTIES CALCULATION
------------------------------------------------------------------------------

Dipole Moment Calculation                       ... on
Quadrupole Moment Calculation                   ... off
Polarizability Calculation                      ... off
GBWName                                         ... structure_opt.gbw
Electron density                                ... structure_opt.scfp
The origin for moment calculation is the CENTER OF MASS  = (-0.210584, -3.044952  4.497761)

-------------
DIPOLE MOMENT
-------------
                                X             Y             Z
Electronic contribution:    -10.78355      23.65350      -6.36058
Nuclear contribution   :      8.20692     -15.42968       9.85859
                        -----------------------------------------
Total Dipole Moment    :     -2.57663       8.22382       3.49801
                        -----------------------------------------
Magnitude (a.u.)       :      9.30088
Magnitude (Debye)      :     23.64096



--------------------
Rotational spectrum 
--------------------
 
Rotational constants in cm-1:     0.033996     0.007044     0.006695 
Rotational constants in MHz :  1019.187150   211.165455   200.706211 

 Dipole components along the rotational axes: 
x,y,z [a.u.] :     8.386631    -3.873490     1.080218 
x,y,z [Debye]:    21.317121    -9.845628     2.745696 

 

Timings for individual modules:

Sum of individual times         ...     1370.978 sec (=  22.850 min)
GTO integral calculation        ...       70.446 sec (=   1.174 min)   5.1 %
SCF iterations                  ...     1083.296 sec (=  18.055 min)  79.0 %
SCF Gradient evaluation         ...      215.904 sec (=   3.598 min)  15.7 %
Geometry relaxation             ...        1.331 sec (=   0.022 min)   0.1 %
                             ****ORCA TERMINATED NORMALLY****
TOTAL RUN TIME: 0 days 0 hours 24 minutes 8 seconds 387 msec
