
                                 *****************
                                 * O   R   C   A *
                                 *****************

                                            #,                                       
                                            ###                                      
                                            ####                                     
                                            #####                                    
                                            ######                                   
                                           ########,                                 
                                     ,,################,,,,,                         
                               ,,#################################,,                 
                          ,,##########################################,,             
                       ,#########################################, ''#####,          
                    ,#############################################,,   '####,        
                  ,##################################################,,,,####,       
                ,###########''''           ''''###############################       
              ,#####''   ,,,,##########,,,,          '''####'''          '####       
            ,##' ,,,,###########################,,,                        '##       
           ' ,,###''''                  '''############,,,                           
         ,,##''                                '''############,,,,        ,,,,,,###''
      ,#''                                            '''#######################'''  
     '                                                          ''''####''''         
             ,#######,   #######,   ,#######,      ##                                
            ,#'     '#,  ##    ##  ,#'     '#,    #''#        ######   ,####,        
            ##       ##  ##   ,#'  ##            #'  '#       #        #'  '#        
            ##       ##  #######   ##           ,######,      #####,   #    #        
            '#,     ,#'  ##    ##  '#,     ,#' ,#      #,         ##   #,  ,#        
             '#######'   ##     ##  '#######'  #'      '#     #####' # '####'        



                  #######################################################
                  #                        -***-                        #
                  #          Department of theory and spectroscopy      #
                  #    Directorship and core code : Frank Neese         #
                  #        Max Planck Institute fuer Kohlenforschung    #
                  #                Kaiser Wilhelm Platz 1               #
                  #                 D-45470 Muelheim/Ruhr               #
                  #                      Germany                        #
                  #                                                     #
                  #                  All rights reserved                #
                  #                        -***-                        #
                  #######################################################


                         Program Version 5.0.1 -  RELEASE  -


 With contributions from (in alphabetic order):
   Daniel Aravena         : Magnetic Suceptibility
   Michael Atanasov       : Ab Initio Ligand Field Theory (pilot matlab implementation)
   Alexander A. Auer      : GIAO ZORA, VPT2 properties, NMR spectrum
   Ute Becker             : Parallelization
   Giovanni Bistoni       : ED, misc. LED, open-shell LED, HFLD
   Martin Brehm           : Molecular dynamics
   Dmytro Bykov           : SCF Hessian
   Vijay G. Chilkuri      : MRCI spin determinant printing, contributions to CSF-ICE
   Dipayan Datta          : RHF DLPNO-CCSD density
   Achintya Kumar Dutta   : EOM-CC, STEOM-CC
   Dmitry Ganyushin       : Spin-Orbit,Spin-Spin,Magnetic field MRCI
   Miquel Garcia          : C-PCM and meta-GGA Hessian, CC/C-PCM, Gaussian charge scheme
   Yang Guo               : DLPNO-NEVPT2, F12-NEVPT2, CIM, IAO-localization
   Andreas Hansen         : Spin unrestricted coupled pair/coupled cluster methods
   Benjamin Helmich-Paris : MC-RPA, TRAH-SCF, COSX integrals
   Lee Huntington         : MR-EOM, pCC
   Robert Izsak           : Overlap fitted RIJCOSX, COSX-SCS-MP3, EOM
   Marcus Kettner         : VPT2
   Christian Kollmar      : KDIIS, OOCD, Brueckner-CCSD(T), CCSD density, CASPT2, CASPT2-K
   Simone Kossmann        : Meta GGA functionals, TD-DFT gradient, OOMP2, MP2 Hessian
   Martin Krupicka        : Initial AUTO-CI
   Lucas Lang             : DCDCAS
   Marvin Lechner         : AUTO-CI (C++ implementation), FIC-MRCC
   Dagmar Lenk            : GEPOL surface, SMD
   Dimitrios Liakos       : Extrapolation schemes; Compound Job, initial MDCI parallelization
   Dimitrios Manganas     : Further ROCIS development; embedding schemes
   Dimitrios Pantazis     : SARC Basis sets
   Anastasios Papadopoulos: AUTO-CI, single reference methods and gradients
   Taras Petrenko         : DFT Hessian,TD-DFT gradient, ASA, ECA, R-Raman, ABS, FL, XAS/XES, NRVS
   Peter Pinski           : DLPNO-MP2, DLPNO-MP2 Gradient
   Christoph Reimann      : Effective Core Potentials
   Marius Retegan         : Local ZFS, SOC
   Christoph Riplinger    : Optimizer, TS searches, QM/MM, DLPNO-CCSD(T), (RO)-DLPNO pert. Triples
   Tobias Risthaus        : Range-separated hybrids, TD-DFT gradient, RPA, STAB
   Michael Roemelt        : Original ROCIS implementation
   Masaaki Saitow         : Open-shell DLPNO-CCSD energy and density
   Barbara Sandhoefer     : DKH picture change effects
   Avijit Sen             : IP-ROCIS
   Kantharuban Sivalingam : CASSCF convergence, NEVPT2, FIC-MRCI
   Bernardo de Souza      : ESD, SOC TD-DFT
   Georgi Stoychev        : AutoAux, RI-MP2 NMR, DLPNO-MP2 response
   Willem Van den Heuvel  : Paramagnetic NMR
   Boris Wezisla          : Elementary symmetry handling
   Frank Wennmohs         : Technical directorship


 We gratefully acknowledge several colleagues who have allowed us to
 interface, adapt or use parts of their codes:
   Stefan Grimme, W. Hujo, H. Kruse, P. Pracht,  : VdW corrections, initial TS optimization,
                  C. Bannwarth, S. Ehlert          DFT functionals, gCP, sTDA/sTD-DF
   Ed Valeev, F. Pavosevic, A. Kumar             : LibInt (2-el integral package), F12 methods
   Garnet Chan, S. Sharma, J. Yang, R. Olivares  : DMRG
   Ulf Ekstrom                                   : XCFun DFT Library
   Mihaly Kallay                                 : mrcc  (arbitrary order and MRCC methods)
   Jiri Pittner, Ondrej Demel                    : Mk-CCSD
   Frank Weinhold                                : gennbo (NPA and NBO analysis)
   Christopher J. Cramer and Donald G. Truhlar   : smd solvation model
   Lars Goerigk                                  : TD-DFT with DH, B97 family of functionals
   V. Asgeirsson, H. Jonsson                     : NEB implementation
   FAccTs GmbH                                   : IRC, NEB, NEB-TS, DLPNO-Multilevel, CI-OPT
                                                   MM, QMMM, 2- and 3-layer-ONIOM, Crystal-QMMM,
                                                   LR-CPCM, SF, NACMEs, symmetry and pop. for TD-DFT,
                                                   nearIR, NL-DFT gradient (VV10), updates on ESD,
                                                   ML-optimized integration grids
   S Lehtola, MJT Oliveira, MAL Marques          : LibXC Library
   Liviu Ungur et al                             : ANISO software


 Your calculation uses the libint2 library for the computation of 2-el integrals
 For citations please refer to: http://libint.valeyev.net

 Your ORCA version has been built with support for libXC version: 5.1.0
 For citations please refer to: https://tddft.org/programs/libxc/

 This ORCA versions uses:
   CBLAS   interface :  Fast vector & matrix operations
   LAPACKE interface :  Fast linear algebra routines
   SCALAPACK package :  Parallel linear algebra routines
   Shared memory     :  Shared parallel matrices
   BLAS/LAPACK       :  OpenBLAS 0.3.15  USE64BITINT DYNAMIC_ARCH NO_AFFINITY SkylakeX SINGLE_THREADED
        Core in use  :  SkylakeX
   Copyright (c) 2011-2014, The OpenBLAS Project




***************************************
The coordinates will be read from file: structure_opt.xyz
***************************************


Your calculation utilizes the atom-pairwise dispersion correction
based on tight binding partial charges (D4)
Cite in your paper:
E.Caldeweyher, C.Bannwarth, S.Grimme, J.Chem.Phys., (2017), 147, 034112.
E.Caldeweyher, S.Ehlert, A.Hansen, H.Neugebauer, S.Grimme, J.Chem.Phys., (2018), in progress.
   

Your calculation utilizes the SMD solvation module
Please cite in your paper:
A.V. Marenich, C.J. Cramer, D.G. Truhlar J. Phys. Chem. B, 113, (2009), 6378 

XCFun DFT library Copyright 2009-2010 Ulf Ekstrom and contributors.
See http://admol.org/xcfun for more information.
This is free software; see the source code for copying conditions.
There is ABSOLUTELY NO WARRANTY; not even for MERCHANTABILITY or FITNESS FOR A PARTICULAR PURPOSE.
For details see the documentation.
Scientific users of this library should cite U. Ekstrom, L. Visscher, R. Bast, A. J. Thorvaldsen and K. Ruud;
J.Chem.Theor.Comp. 2010, DOI: 10.1021/ct100117s
XCFun Version 0.99 

Your calculation utilizes a Nudged-Elastic-Band implementation
 by V.Asgeirsson, C. Riplinger & H. Jonsson
Please cite in your paper:
 V. Asgeirsson et al., in prep. (2019)
   

================================================================================

----- Orbital basis set information -----
Your calculation utilizes the basis: 6-311++G**
   H, Li - Ne  : R. Krishnan, J. S. Binkley, R. Seeger and J. A. Pople, J. Chem. Phys. 72, 650 (1980).
   Na - Ar     : A. D. McLean and G. S. Chandler J. Chem. Phys. 72, 5639, (1980).
   K  - Ca     : J.-P. Blaudeau, M. P. McGrath, L. A. Curtiss and L. Radom, J. Chem. Phys. 107, 5016 (1997).
   Ga - Kr     : L. A. Curtiss, M. P. McGrath, J.-P. Blandeau, N. E. Davis, R. C. Binning and L. Radom, J. Chem. Phys. 103, 6104 (1995).
   Pol./Diff.
   H, Li - Cl  : T. Clark, J. Chandrasekhar and P. v. R. Schleyer, J. Comp. Chem. 4, 294 (1983).
   H - Ne      : M. J. Frisch, J. A. Pople and J. S. Binkley, J. Chem. Phys. 80, 3265 (1984).

----- AuxJ basis set information -----
Your calculation utilizes the auxiliary basis: def2/J
   F. Weigend, Phys. Chem. Chem. Phys. 8, 1057 (2006).

================================================================================
                                        WARNINGS
                       Please study these warnings very carefully!
================================================================================


WARNING: The environment variable RSH_COMMAND is not set!
  ===> : All Displacements for the Numerical Hessian calculation
         will be started on localhost

WARNING: Geometry Optimization
  ===> : Switching off AutoStart
         For restart on a previous wavefunction, please use MOREAD

INFO   : the flag for use of the SHARK integral package has been found!

================================================================================
                                       INPUT FILE
================================================================================
NAME = TS_search_opt_without_h.inp
|  1> !wb97x 6-311++G** D4 NEB-TS OPT NUMFREQ CPCM(WATER)
|  2> %maxcore  3500
|  3> %pal
|  4> nprocs 24
|  5> end
|  6> %cpcm
|  7> smd true
|  8> SMDsolvent "water"
|  9> end
| 10> %geom
| 11> MaxIter 1000   # allows for n optimization cycles
| 12> EnforceStrictConvergence False
| 13> end
| 14> %NEB NEB_END_XYZFILE "2f3_prod_opt.xyz" END
| 15> * XYZfile -1 1 structure_opt.xyz
| 16> 
| 17>                          ****END OF INPUT****
================================================================================


------------------------------------------------------------------------------- 
                         Nudged Elastic Band Calculation                       
------------------------------------------------------------------------------- 

Number of images (incl. end points)     ....  10
Number of intermediate images           ....  8
Number of optimized images              ....  8
Optimization of end points before NEB   ....  NO
Use existing gbw files for MO input     ....  NO
Number of atoms                         ....  18
Number of (active) degrees of freedom   ....  54
Constrained atoms                       ....  None

-----------------------------------------
  REACTANT (ANGSTROEM)
-----------------------------------------
C      0.014881    -0.023378     1.852490 
N      1.136203    -0.193490     2.484551 
C      1.201512    -0.182776     3.815653 
C      0.089216     0.006271     4.605628 
C     -1.115476     0.189338     3.958534 
C     -1.182564     0.178280     2.573641 
N     -2.444086     0.370976     1.905367 
O     -2.522047     0.365163     0.659822 
O     -3.420724     0.537699     2.609262 
F      0.022606    -0.044266     0.502675 
H      2.186066    -0.330101     4.246068 
H      0.154802     0.013913     5.685569 
H     -2.027235     0.343397     4.521294 
C      2.570237    -7.940163     2.718224 
H      2.902439    -8.534523     1.862462 
H      1.753096    -8.463572     3.222212 
H      3.404378    -7.826125     3.416113 
S      2.011694    -6.318644     2.161433 

-----------------------------------------
  PRODUCT (ANGSTROEM)
-----------------------------------------
C     -0.006655     0.014080     1.789576 
N      1.150760    -0.163122     2.425247 
C      1.177726    -0.139964     3.759145 
C      0.054738     0.057580     4.546999 
C     -1.158972     0.233636     3.911162 
C     -1.178720     0.217442     2.525234 
N     -2.493686     0.427964     1.904940 
O     -2.584738     1.164910     0.947848 
O     -3.439094    -0.145340     2.414303 
F      3.139899     2.499865     0.919104 
H      2.152169    -0.281946     4.215772 
H      0.130494     0.071637     5.627108 
H     -2.077395     0.389730     4.465403 
C      0.049505     1.625975    -0.482258 
H     -0.875798     2.113075    -0.187252 
H      0.131238     1.624494    -1.570971 
H      0.921382     2.132605    -0.060262 
S      0.064147    -0.119619     0.009902 



----------------------
NEB settings
----------------------
Method type                             ....  climbing image
Threshold for climbing image            ....  2.00e-02 Eh/Bohr 
Free endpoints                          ....  off 
Tangent type                            ....  improved 
Number of intermediate images           ....  8 
Number of images free to move           ....  8 
Spring type for image distribution      ....  distance between adjacent images 
Spring constant                         ....  energy weighted (0.0100 -to- 0.1000) Eh/Bohr^2 
Spring force perp. to the path          ....  none 
Generation of initial path              ....  image dependent pair potential 
Initial path via TS guess               ....  off 

Minimization of RMSD: Rotation          ....  always 
Minimization of RMSD: Translation type  ....  centroid 
Center fixed to origin                  ....  true 
Remove external force                   ....  true 

Reparametrization of the path           ....  off 
Convergence thresholds:
Convergence monitored for               ....  all images
Scaling factor                          ....  10.00

Convergence parameters for regular images:
               Max(|Fp|)                ....  2.00e-02 Eh/Bohr
               RMS(Fp)                  ....  1.00e-02 Eh/Bohr

Convergence parameters for climbing image:
               Max(|F|)                 ....  2.00e-03 Eh/Bohr
               RMS(F)                   ....  1.00e-03 Eh/Bohr
Optimization method:
Method                                  ....  L-BFGS
Max. iterations                         ....  500 
Step size                               ....  1.00 
Maximum allowed step size               ....  0.10 Bohr

LBFGS parameters: 
               Memory                   ....  20 
               Initial step size        ....  0.0010 
               Estimate curvature       ....  YES 
               Reset on maxmove         ....  YES 
               Reparam. on reset        ....  NO 
Generation of  the initial path:
Minimize RMSD between reactant and product configurations     .... done
       RMSD before minimization         ....  6.0269 Bohr
       RMSD after minimization          ....  3.2974 Bohr
Performing linear interpolation         ....  done
Interpolation using                     ....  IDPP (Image Dependent Pair Potential)
IDPP-Settings:
       Remove global transl. and rot.   ...   true
       Convergence tolerance            ....  0.0100 1/Ang.^3
       Max. numer of iterations         ....    7000
       Spring constant                  ....  1.0000 1/Ang.^4
       Time step                        ....  0.0100 fs
       Max. movement per iteration      ....  0.0500 Ang.
       Full print                       ....  false 
idpp initial path generation successfully converged in 147 iterations
Displacement along initial path:             25.6153 Bohr
Writing initial trajectory to file      ....  TS_search_opt_without_h_initial_path_trj.xyz



----------------------
NEB OPTIMIZATION      
----------------------

Following output files will be written:
Energy profile during opt. written to    ....  TS_search_opt_without_h.interp
Optimization log-file                    ....  TS_search_opt_without_h.NEB.log
Current trajectory will be written to    ....  TS_search_opt_without_h_MEP_trj.xyz
       and to allxyz file                ....  TS_search_opt_without_h_MEP.allxyz
       and individual images to xyz file ....  TS_search_opt_without_h_im{NIm}.xyz
Trajectory history will be written to    ....  TS_search_opt_without_h_MEP_ALL_trj.xyz
Converged CI will be written to          ....  TS_search_opt_without_h_NEB-CI_converged.xyz
Converged TS will be written to          ....  TS_search_opt_without_h_NEB-TS_converged.xyz

Single point energy and gradient calculation of reactant and
product configurations (have to be performed only once)
Properties of fixed NEB end points:
               Reactant:
                         E               ....   -990.267831 Eh
                         RMS(F)          ....      0.010115 Eh/Bohr
                         MAX(|F|)        ....      0.037034 Eh/Bohr
      Warning: Reactant seems to be less converged than convergence tolerances.
               You might want to use free end NEB or preopt_ends true.
               Product:
                         E               ....   -990.305498 Eh
                         RMS(F)          ....      0.001279 Eh/Bohr
                         MAX(|F|)        ....      0.004896 Eh/Bohr



Starting iterations:

Optim.  Iteration  HEI  E(HEI)-E(0)  max(|Fp|)   RMS(Fp)    dS
Switch-on CI threshold               0.020000 
   LBFGS     0      4    0.181409    0.100261   0.018005  25.6153       
   LBFGS     1      4    0.160812    0.076727   0.009806  25.6031       
   LBFGS     2      4    0.161962    0.103596   0.012987  25.5947       
   LBFGS     3      4    0.159620    0.062056   0.009578  25.5853       
   LBFGS     4      4    0.161627    0.081798   0.011734  25.5871       
   LBFGS     5      4    0.165198    0.107088   0.013239  25.6018       
   LBFGS     6      4    0.152516    0.054535   0.007295  25.6090       
   LBFGS     7      4    0.155929    0.102821   0.011260  25.6207       
   LBFGS     8      4    0.156475    0.107759   0.013306  25.6475       
   LBFGS     9      4    0.151459    0.051233   0.006489  25.6518       
   LBFGS    10      4    0.151936    0.054578   0.007671  25.6653       
   LBFGS    11      4    0.154769    0.073108   0.010148  25.7069       
   LBFGS    12      4    0.157311    0.130697   0.012191  25.7338       
   LBFGS    13      4    0.149709    0.044376   0.007592  25.7456       
   LBFGS    14      4    0.149971    0.042630   0.007868  25.7939       
   LBFGS    15      4    0.151522    0.075164   0.008332  25.8171       
   LBFGS    16      4    0.149408    0.046667   0.008153  25.8416       
   LBFGS    17      4    0.149514    0.049053   0.009073  25.9005       
   LBFGS    18      4    0.148899    0.058651   0.008325  25.9262       
   LBFGS    19      4    0.148238    0.026147   0.005615  25.9419       
   LBFGS    20      4    0.148059    0.024867   0.005268  26.0115       
   LBFGS    21      4    0.150268    0.058861   0.008173  26.0556       
   LBFGS    22      4    0.149039    0.039989   0.007666  26.0993       
   LBFGS    23      4    0.148525    0.041350   0.007469  26.1961       
   LBFGS    24      4    0.147666    0.027835   0.005005  26.2206       
   LBFGS    25      4    0.147225    0.019892   0.004456  26.2471       

Image  4 will be converted to a climbing image in the next iteration (max(|Fp|) < 0.0200) 

Optim.  Iteration  CI   E(CI)-E(0)   max(|Fp|)   RMS(Fp)    dS     max(|FCI|)   RMS(FCI)
Convergence thresholds               0.020000   0.010000            0.002000    0.001000 
   LBFGS    26      4    0.147009    0.019810   0.003552  26.2557    0.007972    0.002059       
   LBFGS    27      4    0.147367    0.029147   0.006107  26.3517    0.025006    0.005298       
   LBFGS    28      4    0.148218    0.046912   0.008557  26.4937    0.040652    0.008626       
   LBFGS    29      4    0.146485    0.016697   0.003555  26.5137    0.015491    0.003735       
   LBFGS    30      4    0.146299    0.014936   0.003148  26.5401    0.006659    0.002228       
   LBFGS    31      4    0.146907    0.042907   0.007033  26.7078    0.028803    0.007558       
   LBFGS    32      4    0.145965    0.019416   0.003000  26.7228    0.020818    0.004104       
   LBFGS    33      4    0.145676    0.012502   0.002733  26.7439    0.006687    0.001612       
   LBFGS    34      4    0.146059    0.031775   0.005099  26.8798    0.024505    0.005414       
   LBFGS    35      4    0.147315    0.043271   0.006629  27.0823    0.052352    0.011280       
   LBFGS    36      4    0.145719    0.008968   0.002179  27.0936    0.038458    0.008548       
   LBFGS    37      4    0.144534    0.008279   0.002189  27.1104    0.007297    0.002100       
   LBFGS    38      4    0.144758    0.013845   0.002572  27.1384    0.021206    0.005417       
   LBFGS    39      4    0.146340    0.026331   0.004233  27.2981    0.054150    0.014149       
   LBFGS    40      4    0.143902    0.010754   0.002215  27.3017    0.025978    0.005015       
   LBFGS    41      4    0.143581    0.007686   0.001616  27.3100    0.018060    0.003707       
   LBFGS    42      4    0.143267    0.010212   0.002407  27.3493    0.008457    0.003033       
   LBFGS    43      4    0.143170    0.021947   0.004480  27.4581    0.017607    0.005529       
   LBFGS    44      4    0.142739    0.028354   0.005438  27.5886    0.022284    0.006909       
   LBFGS    45      4    0.141140    0.007564   0.001564  27.5829    0.016282    0.003365       
   LBFGS    46      4    0.141007    0.007549   0.001438  27.5840    0.013234    0.003708       
   LBFGS    47      4    0.140940    0.012355   0.001992  27.5883    0.021455    0.005732       

Possible intermediate minimum found at image(s): 1 
  => have a look at the .interp file.
  => it is often a good idea to divide the path calculation into smaller fragments. 

   LBFGS    48      4    0.140671    0.023422   0.003494  27.6170    0.038815    0.009669       
   LBFGS    49      4    0.139454    0.007137   0.001689  27.6201    0.022910    0.004901       
   LBFGS    50      4    0.139044    0.007153   0.001403  27.6262    0.013918    0.003038       
   LBFGS    51      4    0.138571    0.009141   0.001885  27.6494    0.011004    0.002508       
   LBFGS    52      4    0.138008    0.012948   0.002878  27.6936    0.016836    0.004913       
   LBFGS    53      4    0.136970    0.015357   0.003416  27.7555    0.021456    0.006235       
   LBFGS    54      4    0.136465    0.006873   0.001620  27.7433    0.028819    0.006394       
   LBFGS    55      4    0.135635    0.006694   0.001651  27.7403    0.012319    0.002387       
   LBFGS    56      4    0.135424    0.006690   0.001704  27.7418    0.012260    0.003366       
   LBFGS    57      4    0.134635    0.012849   0.002590  27.7720    0.022308    0.007079       
   LBFGS    58      4    0.133250    0.017885   0.003656  27.8370    0.028962    0.008800       
   LBFGS    59      4    0.132654    0.010784   0.002302  27.8553    0.038291    0.008013       
   LBFGS    60      4    0.131512    0.008965   0.001810  27.8757    0.020053    0.004575       
   LBFGS    61      4    0.130721    0.008715   0.001831  27.9164    0.012686    0.002833       
   LBFGS    62      4    0.130264    0.013011   0.002128  27.9603    0.019595    0.005701       
   LBFGS    63      4    0.128844    0.016099   0.002564  28.0460    0.025413    0.007134       
   LBFGS    64      4    0.128757    0.008610   0.001939  28.0392    0.032417    0.007345       
   LBFGS    65      4    0.128086    0.008691   0.001559  28.0355    0.026029    0.005776       
   LBFGS    66      4    0.126372    0.015076   0.002375  28.0447    0.011574    0.002533       
   LBFGS    67      4    0.124978    0.027911   0.003683  28.0839    0.012641    0.003976       
   LBFGS    68      4    0.123403    0.026574   0.003781  28.1434    0.019772    0.005985       
   LBFGS    69      4    0.120931    0.027148   0.003974  28.2310    0.023073    0.006782       
   LBFGS    70      4    0.120374    0.024311   0.003442  28.2420    0.021148    0.005391       
   LBFGS    71      4    0.119941    0.015763   0.002410  28.2496    0.019394    0.004835       
   LBFGS    72      4    0.118484    0.010956   0.002060  28.2797    0.017609    0.005623       
   LBFGS    73      4    0.116894    0.023894   0.003315  28.2982    0.019603    0.004847       
   LBFGS    74      4    0.115359    0.025953   0.003507  28.3110    0.017098    0.004188       
   LBFGS    75      4    0.112546    0.025790   0.003673  28.3426    0.014152    0.003686       
   LBFGS    76      4    0.112030    0.030603   0.003649  28.3403    0.009266    0.003468       
   LBFGS    77      4    0.111599    0.021491   0.002760  28.3368    0.009332    0.003291       
   LBFGS    78      4    0.108856    0.012403   0.002202  28.3547    0.010451    0.003323       

Possible intermediate minimum found at image(s): 1 
  => have a look at the .interp file.
  => it is often a good idea to divide the path calculation into smaller fragments. 

   LBFGS    79      4    0.109206    0.019419   0.002724  28.3960    0.036076    0.011080       
   LBFGS    80      4    0.105542    0.013091   0.002614  28.4361    0.013987    0.005210       
   LBFGS    81      4    0.102005    0.013227   0.003217  28.5008    0.009861    0.003011       
   LBFGS    82      4    0.099515    0.029684   0.003695  28.4885    0.013141    0.003772       
   LBFGS    83      4    0.097090    0.054441   0.006210  28.5428    0.013270    0.004507       
   LBFGS    84      4    0.096390    0.035355   0.004121  28.5497    0.009954    0.003808       
   LBFGS    85      4    0.092049    0.021884   0.003311  28.6503    0.009196    0.003488       
   LBFGS    86      4    0.091162    0.022056   0.003434  28.6618    0.009180    0.003482       
   LBFGS    87      4    0.090229    0.021487   0.003280  28.6761    0.009484    0.003568       
   LBFGS    88      4    0.085551    0.019870   0.003286  28.7601    0.011048    0.003773       
   LBFGS    89      4    0.084272    0.030648   0.004204  28.7837    0.011671    0.003954       
   LBFGS    90      4    0.082957    0.026964   0.003791  28.8077    0.011914    0.003954       
   LBFGS    91      4    0.076724    0.018756   0.003220  28.9432    0.012850    0.004075       
   LBFGS    92      4    0.074884    0.031122   0.004353  28.9721    0.012827    0.004254       
   LBFGS    93      4    0.073049    0.023524   0.003600  29.0046    0.013144    0.004310       
   LBFGS    94      4    0.064744    0.017308   0.003903  29.1843    0.014663    0.004715       
   LBFGS    95      4    0.060823    0.024221   0.003872  29.2786    0.016190    0.004972       
   LBFGS    96      4    0.056968    0.020140   0.003300  29.3576    0.016531    0.004939       
   LBFGS    97      4    0.048068    0.021985   0.003550  29.5620    0.017136    0.005046       
   LBFGS    98      4    0.044470    0.027702   0.003206  29.5982    0.016663    0.004976       
   LBFGS    99      4    0.039450    0.030936   0.003763  29.7241    0.015208    0.004758       
   LBFGS   100      4    0.032817    0.037370   0.004501  29.9339    0.013220    0.004479       
   LBFGS   101      4    0.031179    0.011202   0.002321  29.9510    0.011172    0.004155       
   LBFGS   102      4    0.028016    0.019959   0.003326  30.0846    0.011153    0.003953       
   LBFGS   103      4    0.023514    0.035589   0.004601  30.3029    0.011194    0.003618       
   LBFGS   104      4    0.022048    0.018299   0.003014  30.3383    0.010631    0.003879       
   LBFGS   105      3    0.021481    0.017397   0.004109  30.5202    0.026278    0.006852       
   LBFGS   106      3    0.024164    0.029760   0.006626  30.7341    0.032662    0.009512       
   LBFGS   107      3    0.019357    0.040214   0.007353  30.7599    0.017140    0.004983       
   LBFGS   108      3    0.018416    0.026154   0.004851  30.8155    0.007999    0.003371       
   LBFGS   109      3    0.018887    0.011756   0.002323  30.9671    0.014535    0.004764       

Possible intermediate minimum found at image(s): 1 
  => have a look at the .interp file.
  => it is often a good idea to divide the path calculation into smaller fragments. 

   LBFGS   110      3    0.018070    0.013288   0.002533  31.1521    0.014339    0.004306       
   LBFGS   111      3    0.018630    0.018879   0.002787  31.3536    0.019601    0.005935       
   LBFGS   112      3    0.017612    0.021517   0.003266  31.4683    0.022013    0.006125       
   LBFGS   113      3    0.016245    0.036073   0.004299  31.6316    0.012137    0.004259       
   LBFGS   114      3    0.015401    0.041932   0.004895  31.8316    0.009458    0.003747       
   LBFGS   115      3    0.014842    0.026147   0.003276  31.8748    0.006596    0.002392       
   LBFGS   116      3    0.014617    0.024011   0.003125  31.9288    0.005238    0.002072       
   LBFGS   117      3    0.014267    0.019210   0.002638  32.1348    0.005803    0.002164       
   LBFGS   118      3    0.013999    0.037653   0.004250  32.2483    0.004841    0.001849       
   LBFGS   119      3    0.013848    0.027043   0.003286  32.3408    0.004312    0.001924       
   LBFGS   120      3    0.013497    0.032660   0.002922  32.6028    0.006043    0.002357       
   LBFGS   121      3    0.013172    0.028756   0.003445  32.5733    0.004227    0.001759       
   LBFGS   122      3    0.013023    0.013093   0.001828  32.6052    0.004873    0.001983       
   LBFGS   123      3    0.012767    0.022206   0.002296  32.7427    0.006625    0.002679       
   LBFGS   124      3    0.012401    0.033798   0.004787  32.9640    0.006062    0.002601       
   LBFGS   125      3    0.012302    0.028953   0.002356  33.0782    0.007223    0.002824       
   LBFGS   126      3    0.011948    0.029746   0.003920  33.2048    0.006720    0.002375       
   LBFGS   127      3    0.011503    0.035441   0.005387  33.4290    0.006295    0.002258       
   LBFGS   128      3    0.011294    0.016946   0.002438  33.4149    0.004605    0.001666       
   LBFGS   129      3    0.011175    0.015838   0.002292  33.4233    0.003695    0.001425       
   LBFGS   130      3    0.010836    0.013957   0.002146  33.5679    0.003696    0.001556       
   LBFGS   131      3    0.010645    0.028801   0.003642  33.6874    0.003515    0.001279       
   LBFGS   132      3    0.010541    0.018200   0.002538  33.7773    0.003533    0.001328       
   LBFGS   133      3    0.010276    0.024319   0.002033  34.0546    0.004891    0.001773       
   LBFGS   134      3    0.009997    0.024902   0.003564  34.1223    0.003803    0.001669       
   LBFGS   135      3    0.009885    0.012718   0.001782  34.1782    0.003232    0.001259       
   LBFGS   136      3    0.009768    0.010177   0.001483  34.2635    0.003227    0.001194       
   LBFGS   137      3    0.009439    0.015135   0.001561  34.5180    0.003176    0.001135       
   LBFGS   138      3    0.009191    0.054319   0.004818  34.6637    0.003102    0.001159       
   LBFGS   139      3    0.009214    0.007128   0.001104  34.6580    0.003109    0.001089       
   LBFGS   140      3    0.009111    0.005643   0.001087  34.7356    0.003080    0.001076       

Possible intermediate minimum found at image(s): 1 
  => have a look at the .interp file.
  => it is often a good idea to divide the path calculation into smaller fragments. 

   LBFGS   141      3    0.008820    0.020932   0.001783  34.9618    0.002992    0.001047       
   LBFGS   142      3    0.008723    0.026497   0.002372  35.0373    0.002969    0.001029       
   LBFGS   143      3    0.008614    0.028270   0.002292  35.1256    0.002932    0.001018       
   LBFGS   144      3    0.008614    0.028269   0.002292  35.1256    0.002932    0.001018       
   LBFGS   145      3    0.008533    0.029462   0.002516  35.1935    0.002892    0.001005       
   LBFGS   146      3    0.008473    0.022634   0.001854  35.2442    0.002873    0.000997       
   LBFGS   147      3    0.008200    0.023213   0.002381  35.4878    0.002775    0.000971       
   LBFGS   148      3    0.008140    0.018670   0.001960  35.5386    0.002771    0.000955       
   LBFGS   149      3    0.008074    0.020152   0.002038  35.5978    0.002759    0.000951       
   LBFGS   150      3    0.007816    0.021283   0.002259  35.8413    0.002677    0.000924       
   LBFGS   151      3    0.007762    0.015335   0.001854  35.8964    0.002650    0.000914       
   LBFGS   152      3    0.007709    0.019589   0.002120  35.9479    0.002629    0.000910       
   LBFGS   153      3    0.007461    0.033341   0.003135  36.2046    0.002523    0.000907       
   LBFGS   154      3    0.007419    0.016375   0.001653  36.2446    0.002534    0.000879       
   LBFGS   155      3    0.007371    0.019852   0.001902  36.2939    0.002535    0.000876       
   LBFGS   156      3    0.007133    0.029050   0.002752  36.5480    0.002489    0.000877       
   LBFGS   157      3    0.007063    0.049139   0.004253  36.6565    0.002417    0.000855       
   LBFGS   158      3    0.007047    0.003799   0.000866  36.6695    0.002420    0.000842       
   LBFGS   159      3    0.007003    0.009350   0.001120  36.7171    0.002409    0.000836       
   LBFGS   160      3    0.006769    0.041774   0.003943  36.9942    0.002340    0.000826       
   LBFGS   161      3    0.006734    0.011972   0.001653  37.0358    0.002328    0.000809       
   LBFGS   162      3    0.006706    0.010438   0.001199  37.0705    0.002319    0.000806       
   LBFGS   163      3    0.006475    0.015472   0.001902  37.3616    0.002264    0.000796       
   LBFGS   164      3    0.006427    0.014972   0.001842  37.4222    0.002247    0.000780       
   LBFGS   165      3    0.006375    0.015556   0.001876  37.4926    0.002232    0.000782       
   LBFGS   166      3    0.006149    0.018639   0.002227  37.8177    0.002169    0.000790       
   LBFGS   167      3    0.006103    0.014974   0.001815  37.8873    0.002167    0.000751       
   LBFGS   168      3    0.006063    0.012852   0.001478  37.9483    0.002160    0.000754       
   LBFGS   169      3    0.005860    0.014518   0.001939  38.2697    0.002119    0.000777       
   LBFGS   170      3    0.005805    0.010660   0.001773  38.3318    0.002084    0.000745       
   LBFGS   171      3    0.005752    0.010382   0.001524  38.4103    0.002064    0.000750       

Possible intermediate minimum found at image(s): 1 
  => have a look at the .interp file.
  => it is often a good idea to divide the path calculation into smaller fragments. 

   LBFGS   172      3    0.005565    0.016911   0.002311  38.7095    0.002002    0.000756       
   LBFGS   173      3    0.005515    0.015420   0.001919  38.7913    0.002014    0.000700       
   LBFGS   174      3    0.005472    0.008684   0.001269  38.8661    0.002009    0.000705       
   LBFGS   175      3    0.005322    0.020023   0.002549  39.1319    0.001975    0.000713       
   LBFGS   176      3    0.005155    0.025631   0.003620  39.4396    0.001929    0.000741       
   LBFGS   177      3    0.005123    0.017707   0.002128  39.4521    0.001904    0.000665       

                                .--------------------.
          ----------------------| CI-NEB convergence |-------------------------
          Item                value                   Tolerance       Converged
          ---------------------------------------------------------------------
          RMS(Fp)             0.0021284131            0.0100000000      YES
          MAX(|Fp|)           0.0177072869            0.0200000000      YES
          RMS(FCI)            0.0006654733            0.0010000000      YES
          MAX(|FCI|)          0.0019037812            0.0020000000      YES
          ---------------------------------------------------------------------

The elastic band and climbing image have converged successfully to a MEP in 177 iterations!


                    *********************H U R R A Y*********************
                    ***        THE NEB OPTIMIZATION HAS CONVERGED     ***
                    *****************************************************



---------------------------------------------------------------
                         PATH SUMMARY              
---------------------------------------------------------------
All forces in Eh/Bohr.

Image Dist.(Ang.)    E(Eh)   dE(kcal/mol)  max(|Fp|)  RMS(Fp)
  0     0.000    -990.26783      0.00       0.03702   0.01011
  1     4.536    -990.27419     -3.99       0.00078   0.00032
  2     8.839    -990.27069     -1.79       0.01771   0.00443
  3     9.275    -990.26271      3.21       0.00194   0.00066 <= CI
  4     9.412    -990.26519      1.66       0.00349   0.00115
  5     9.655    -990.27632     -5.32       0.00600   0.00237
  6    11.223    -990.29226    -15.33       0.00472   0.00154
  7    13.497    -990.30311    -22.14       0.00213   0.00078
  8    16.907    -990.30222    -21.58       0.01679   0.00334
  9    20.877    -990.30550    -23.64       0.00445   0.00125

Straight line distance between images along the path:
        D( 0- 1) =   4.5358 Ang.
        D( 1- 2) =   4.3033 Ang.
        D( 2- 3) =   0.4361 Ang.
        D( 3- 4) =   0.1367 Ang.
        D( 4- 5) =   0.2437 Ang.
        D( 5- 6) =   1.5680 Ang.
        D( 6- 7) =   2.2736 Ang.
        D( 7- 8) =   3.4097 Ang.
        D( 8- 9) =   3.9704 Ang.

---------------------------------------------------------------
               INFORMATION ABOUT SADDLE POINT     
---------------------------------------------------------------

Climbing image                            ....  3 
Energy                                    ....  -990.26270862 Eh
Max. abs. force                           ....  1.9038e-03 Eh/Bohr

-----------------------------------------
  SADDLE POINT (ANGSTROEM)
-----------------------------------------
C      0.411717     0.290499    -0.442151 
N      1.464712     0.713537     0.270814 
C      1.275050     1.586670     1.245493 
C      0.051074     2.195516     1.535379 
C     -1.031411     1.832963     0.766187 
C     -0.868171     0.891714    -0.247455 
N     -2.016102     0.505787    -1.000652 
O     -1.876952    -0.182310    -2.001874 
O     -3.125993     0.874228    -0.613777 
F      0.768259    -0.102106    -1.693107 
H      2.159099     1.860858     1.815320 
H     -0.024184     2.959932     2.297950 
H     -2.003094     2.291442     0.906725 
C      1.038374    -3.215077    -0.640959 
H      0.803592    -3.234344    -1.709706 
H      0.867742    -4.225006    -0.253886 
H      2.106576    -3.005074    -0.530503 
S     -0.000288    -2.039228     0.296199 

-----------------------------------------
  FORCES (Eh/Bohr)
-----------------------------------------
C      0.000317     0.000276    -0.000356 
N      0.000512     0.000147    -0.000756 
C      0.000302    -0.000141    -0.000340 
C      0.000223    -0.000727     0.000221 
C      0.000076    -0.000591    -0.000013 
C      0.000117    -0.000118    -0.000748 
N     -0.000172    -0.000164    -0.000631 
O      0.001011    -0.000505    -0.000679 
O      0.000169     0.000187    -0.000196 
F     -0.000169    -0.001346     0.000379 
H      0.000295     0.000086    -0.000570 
H     -0.000075    -0.001088     0.000881 
H     -0.000101    -0.000777     0.000413 
C     -0.000447     0.000938     0.000526 
H     -0.001027     0.001904     0.000726 
H      0.000194     0.000680    -0.000240 
H     -0.000617     0.001526     0.000201 
S     -0.000536    -0.000138     0.001825 

-----------------------------------------
  UNIT TANGENT
-----------------------------------------
C     -0.082345    -0.562000     0.213222 
N      0.009788    -0.211351     0.128992 
C      0.001344    -0.096838    -0.024765 
C     -0.021763    -0.046395    -0.005638 
C      0.008775    -0.046337    -0.004186 
C     -0.042601    -0.153431     0.027732 
N      0.013585    -0.040537     0.056413 
O     -0.006469    -0.074561     0.015483 
O     -0.017082     0.034450    -0.016965 
F      0.065424     0.038205    -0.056425 
H      0.008255     0.008306    -0.068328 
H      0.012210     0.005793    -0.038759 
H      0.028914     0.014371    -0.059819 
C      0.001989     0.203945    -0.032859 
H     -0.006305     0.074891    -0.020080 
H     -0.141217     0.258708     0.103808 
H      0.019027     0.060555    -0.015641 
S      0.148471     0.532225    -0.202186 
 => Unit tangent is an approximation to the TS mode at the saddle point

Next a TS optimization is performed on the CI from the NEB run.

         *************************************************************
         *                       TS OPTIMIZATION                     *
         *************************************************************


Following output files will be written:
Converged TS will be written to          ....  TS_search_opt_without_h_NEB-TS_converged.xyz
                                         ....  TS_search_opt_without_h.xyz
Current trajectory will be written to    ....  TS_search_opt_without_h_trj.xyz
Initial Hessian will be stored in        ....  TS_search_opt_without_h.appr.hess
Geometry optimization settings:
Update method            Update   .... Bofill
Choice of coordinates    CoordSys .... Z-matrix Internals
Initial Hessian          InHess   .... Read

Convergence Tolerances:
Energy Change            TolE     ....  5.0000e-06 Eh
Max. Gradient            TolMAXG  ....  3.0000e-04 Eh/bohr
RMS Gradient             TolRMSG  ....  1.0000e-04 Eh/bohr
Max. Displacement        TolMAXD  ....  4.0000e-03 bohr
RMS Displacement         TolRMSD  ....  2.0000e-03 bohr
Strict Convergence                ....  False
------------------------------------------------------------------------------
                        ORCA OPTIMIZATION COORDINATE SETUP
------------------------------------------------------------------------------

The optimization will be done in new redundant internal coordinates
Making redundant internal coordinates   ...  (new redundants) done
Following TS mode number                ...     0
TS-active-atoms for coordinate setup... 0 17 
Evaluating the initial hessian          ... (Reading Exact Hessian)...  
InHessName: TS_search_opt_without_h.appr.hess	The file <TS_search_opt_without_h.appr.hess> is opened as a .hess file
done
done
Diagonalizing the Hessian               .... done
Dimension of the hessian                .... 155
Lowest eigenvalues of the non projected Hessian:
 -0.009555327 -0.000000000 -0.000000000 -0.000000000 -0.000000000
done
Evaluating the coordinates              ...  done
Calculating the B-matrix                .... done
Calculating the G-matrix                .... done
Diagonalizing the G-matrix              .... done
The first mode is                       ....  107
The number of degrees of freedom        ....   48

    -----------------------------------------------------------------
                    Redundant Internal Coordinates


    -----------------------------------------------------------------
         Definition                    Initial Value    d2E/dq (diagonal element)
    -----------------------------------------------------------------
      1. B(N   1,C   0)                  1.3402         0.210258   
      2. B(C   2,C   0)                  2.2964         0.122442   
      3. B(C   2,N   1)                  1.3222         0.328406   
      4. B(C   3,C   2)                  1.3974         0.445169   
      5. B(C   3,C   0)                  2.7694         0.100677   
      6. B(C   4,C   0)                  2.4335         0.107507   
      7. B(C   4,C   3)                  1.3765         0.498400   
      8. B(C   5,C   4)                  1.3929         0.291702   
      9. B(C   5,C   0)                  1.4274         0.145559   
     10. B(N   6,C   0)                  2.5005         0.095557   
     11. B(N   6,C   5)                  1.4262         0.264769   
     12. B(O   7,C   0)                  2.8097         0.062449   
     13. B(O   7,N   6)                  1.2228         0.859925   
     14. B(O   8,N   6)                  1.2318         0.895373   
     15. B(F   9,C   0)                  1.3587         0.323795   
     16. B(H  10,C   2)                  1.0869         0.364502   
     17. B(H  11,C   3)                  1.0824         0.370655   
     18. B(H  12,C   4)                  1.0836         0.368864   
     19. B(H  14,C  13)                  1.0944         0.266265   
     20. B(H  14,F   9)                  3.1325         0.032776   
     21. B(H  15,C  13)                  1.0949         0.291115   
     22. B(H  16,C  13)                  1.0942         0.286884   
     23. B(S  17,H  16)                  2.4607         0.064406   
     24. B(S  17,H  15)                  2.4153         0.079858   
     25. B(S  17,H  14)                  2.4694         0.063244   
     26. B(S  17,F   9)                  2.8810         0.054033   
     27. B(S  17,C   5)                  3.1047         0.050120   
     28. B(S  17,N   1)                  3.1184         0.059964   
     29. B(S  17,C   0)                  2.4784         0.001167   
     30. B(S  17,C  13)                  1.8275         0.135949   
     31. A(N   1,C   0,F   9)          112.0136         0.012486   
     32. A(F   9,C   0,S  17)           92.6531         0.007448   
     33. A(C   5,C   0,S  17)          101.9017         0.009518   
     34. A(N   1,C   0,S  17)          105.5958         0.009877   
     35. A(C   5,C   0,F   9)          118.8536         0.012189   
     36. A(N   1,C   0,C   5)          119.9336         0.021320   
     37. A(C   0,N   1,S  17)           49.9518         0.004431   
     38. A(C   2,N   1,S  17)          120.6321         0.021321   
     39. A(C   0,N   1,C   2)          119.2022         0.031191   
     40. A(C   3,C   2,H  10)          119.5857         0.193564   
     41. A(N   1,C   2,C   3)          124.4890         0.061017   
     42. A(N   1,C   2,H  10)          115.8718         0.193919   
     43. A(C   2,C   3,C   4)          117.2645         0.065723   
     44. A(C   4,C   3,H  11)          121.6696         0.193826   
     45. A(C   2,C   3,H  11)          120.9809         0.193179   
     46. A(C   3,C   4,C   5)          119.5031         0.055787   
     47. A(C   5,C   4,H  12)          119.0396         0.191455   
     48. A(C   3,C   4,H  12)          121.4171         0.191801   
     49. A(C   0,C   5,N   6)          122.3917         0.046682   
     50. A(C   0,C   5,C   4)          119.2735         0.026035   
     51. A(C   4,C   5,S  17)          122.9068         0.017239   
     52. A(N   6,C   5,S  17)           93.5558         0.035908   
     53. A(C   0,C   5,S  17)           51.3629         0.004058   
     54. A(C   4,C   5,N   6)          118.2205         0.064546   
     55. A(C   5,N   6,O   8)          118.5836         0.247777   
     56. A(O   7,N   6,O   8)          121.8711         0.255153   
     57. A(C   5,N   6,O   7)          119.5442         0.084169   
     58. A(C   0,F   9,S  17)           59.2409         0.005024   
     59. A(H  16,C  13,S  17)          112.3079         0.093721   
     60. A(H  15,C  13,S  17)          108.8815         0.090398   
     61. A(H  14,C  13,S  17)          112.9663         0.085833   
     62. A(H  15,C  13,H  16)          107.0653         0.072418   
     63. A(H  14,C  13,H  15)          107.1907         0.069386   
     64. A(H  14,C  13,H  16)          108.1425         0.083824   
     65. A(C   0,S  17,C  13)          110.9509         0.019024   
     66. A(C   5,S  17,F   9)           47.0724         0.012000   
     67. A(N   1,S  17,F   9)           43.5754         0.011809   
     68. A(C   0,S  17,F   9)           28.1060         0.011065   
     69. A(F   9,S  17,C  13)           85.8089         0.014139   
     70. A(N   1,S  17,C   5)           45.2965         0.007648   
     71. A(C   0,S  17,C   5)           26.7354         0.004886   
     72. A(C   5,S  17,C  13)          132.5702         0.019857   
     73. A(C   0,S  17,N   1)           24.4525         0.006133   
     74. A(N   1,S  17,C  13)          107.2653         0.017895   
     75. D(S  17,N   1,C   0,C   5)    114.0665         0.009412   
     76. D(C   2,N   1,C   0,C   5)      7.0457         0.011064   
     77. D(S  17,N   1,C   0,F   9)    -99.4792         0.008954   
     78. D(C   2,N   1,C   0,S  17)   -107.0208         0.011979   
     79. D(C   2,N   1,C   0,F   9)    153.5000         0.012312   
     80. D(H  10,C   2,N   1,C   0)    177.5253         0.013061   
     81. D(C   3,C   2,N   1,S  17)    -63.4432         0.011703   
     82. D(H  10,C   2,N   1,S  17)    119.2396         0.014282   
     83. D(C   3,C   2,N   1,C   0)     -5.1576         0.013155   
     84. D(H  11,C   3,C   2,N   1)   -175.2350         0.011615   
     85. D(H  11,C   3,C   2,H  10)      1.9891         0.013535   
     86. D(C   4,C   3,C   2,H  10)    178.6929         0.012124   
     87. D(C   4,C   3,C   2,N   1)      1.4688         0.011538   
     88. D(C   5,C   4,C   3,H  11)    176.8002         0.010982   
     89. D(C   5,C   4,C   3,C   2)      0.1206         0.009071   
     90. D(H  12,C   4,C   3,C   2)   -177.5501         0.009638   
     91. D(H  12,C   4,C   3,H  11)     -0.8705         0.012395   
     92. D(N   6,C   5,C   4,C   3)    178.1100         0.011107   
     93. D(N   6,C   5,C   0,S  17)    -65.6008         0.009736   
     94. D(S  17,C   5,C   0,F   9)     99.7958         0.008567   
     95. D(S  17,C   5,C   0,N   1)   -116.0023         0.009521   
     96. D(C   0,C   5,C   4,C   3)      1.9029         0.009583   
     97. D(N   6,C   5,C   4,H  12)     -4.1636         0.011392   
     98. D(N   6,C   5,C   0,F   9)     34.1950         0.009431   
     99. D(N   6,C   5,C   0,N   1)    178.3969         0.010812   
    100. D(C   4,C   5,C   0,S  17)    110.4411         0.010693   
    101. D(S  17,C   5,C   4,H  12)   -119.7014         0.010820   
    102. D(S  17,C   5,C   4,C   3)     62.5722         0.009936   
    103. D(C   4,C   5,C   0,F   9)   -149.7631         0.010898   
    104. D(C   4,C   5,C   0,N   1)     -5.5612         0.010056   
    105. D(C   0,C   5,C   4,H  12)    179.6293         0.009508   
    106. D(O   8,N   6,C   5,S  17)    120.8616         0.008815   
    107. D(O   8,N   6,C   5,C   4)     -9.7629         0.010797   
    108. D(O   8,N   6,C   5,C   0)    166.3188         0.009440   
    109. D(O   7,N   6,C   5,S  17)    -58.7665         0.009221   
    110. D(O   7,N   6,C   5,C   4)    170.6090         0.011408   
    111. D(O   7,N   6,C   5,C   0)    -13.3094         0.010225   
    112. D(S  17,F   9,C   0,C   5)   -105.1442         0.011044   
    113. D(S  17,F   9,C   0,N   1)    108.0012         0.011493   
    114. D(N   1,S  17,C   5,C   4)    -75.1051         0.024066   
    115. D(N   1,S  17,C   5,C   0)     28.0963         0.008795   
    116. D(C   0,S  17,C   5,N   6)    129.6035         0.019019   
    117. D(C  13,S  17,C   5,N   6)     87.7056         0.015525   
    118. D(C  13,S  17,C   5,C   4)   -145.0993         0.016461   
    119. D(C  13,S  17,C   5,C   0)    -41.8979         0.006737   
    120. D(F   9,S  17,N   1,C   0)     38.7289         0.013421   
    121. D(C   5,S  17,N   1,C   2)     73.2765         0.024126   
    122. D(C   5,S  17,N   1,C   0)    -30.7863         0.009600   
    123. D(C   0,S  17,N   1,C   2)    104.0627         0.023523   
    124. D(C  13,S  17,N   1,C   2)   -153.1643         0.020086   
    125. D(C  13,S  17,N   1,C   0)    102.7729         0.010792   
    126. D(F   9,S  17,C   0,C   5)    120.2299         0.012354   
    127. D(F   9,S  17,C   0,N   1)   -113.7350         0.013355   
    128. D(F   9,S  17,N   1,C   2)    142.7917         0.032868   
    129. D(C   5,S  17,C   0,F   9)   -120.2299         0.012354   
    130. D(C   5,S  17,C   0,N   1)    126.0351         0.016213   
    131. D(N   1,S  17,C   0,F   9)    113.7350         0.013355   
    132. D(C   0,S  17,C   5,C   4)   -103.2014         0.021180   
    133. D(N   1,S  17,C   0,C   5)   -126.0351         0.016213   
    134. D(C  13,S  17,C   0,F   9)     27.9926         0.005857   
    135. D(C  13,S  17,C   0,C   5)    148.2226         0.005111   
    136. D(N   1,S  17,C   5,N   6)    157.6998         0.023547   
    137. D(F   9,S  17,C  13,H  16)     71.5498         0.012371   
    138. D(F   9,S  17,C  13,H  15)   -170.0539         0.012906   
    139. D(C  13,S  17,C   0,N   1)    -85.7423         0.008697   
    140. D(C   5,S  17,C  13,H  16)     77.5058         0.011927   
    141. D(C   5,S  17,C  13,H  15)   -164.0979         0.012777   
    142. D(C   5,S  17,C  13,H  14)    -45.1383         0.014395   
    143. D(N   1,S  17,C  13,H  15)    151.5247         0.015063   
    144. D(N   1,S  17,C  13,H  14)    -89.5157         0.014149   
    145. D(C   0,S  17,C  13,H  16)     58.7404         0.011353   
    146. D(C   0,S  17,C  13,H  15)    177.1367         0.011992   
    147. D(C   0,S  17,C  13,H  14)    -63.9038         0.012058   
    148. D(N   1,S  17,C  13,H  16)     33.1284         0.014558   
    149. D(C   5,S  17,F   9,C   0)     32.0627         0.009759   
    150. D(N   1,S  17,F   9,C   0)    -33.3477         0.012670   
    151. D(C  13,S  17,F   9,C   0)   -153.9278         0.005624   
    152. D(F   9,S  17,C  13,H  14)    -51.0943         0.012862   
    153. D(F   9,S  17,C   5,N   6)     95.8307         0.020639   
    154. D(F   9,S  17,C   5,C   4)   -136.9742         0.027473   
    155. D(F   9,S  17,C   5,C   0)    -33.7729         0.010078   
    -----------------------------------------------------------------

Number of atoms                         .... 18
Number of degrees of freedom            .... 155

         *************************************************************
         *                GEOMETRY OPTIMIZATION CYCLE   1            *
         *************************************************************


           ************************************************************
           *        Program running with 24 parallel MPI-processes    *
           *              working on a common directory               *
           ************************************************************
------------------------------------------------------------------------------
                           ORCA GTO INTEGRAL CALCULATION
                           -- RI-GTO INTEGRALS CHOSEN --
------------------------------------------------------------------------------
------------------------------------------------------------------------------
                   ___                                                        
                  /   \      - P O W E R E D   B Y -                         
                 /     \                                                     
                 |  |  |   _    _      __       _____    __    __             
                 |  |  |  | |  | |    /  \     |  _  \  |  |  /  |          
                  \  \/   | |  | |   /    \    | | | |  |  | /  /          
                 / \  \   | |__| |  /  /\  \   | |_| |  |  |/  /          
                |  |  |   |  __  | /  /__\  \  |    /   |      \           
                |  |  |   | |  | | |   __   |  |    \   |  |\   \          
                \     /   | |  | | |  |  |  |  | |\  \  |  | \   \       
                 \___/    |_|  |_| |__|  |__|  |_| \__\ |__|  \__/        
                                                                              
                      - O R C A' S   B I G   F R I E N D -                    
                                      &                                       
                       - I N T E G R A L  F E E D E R -                       
                                                                              
 v1 FN, 2020, v2 2021                                                         
------------------------------------------------------------------------------


Reading SHARK input file TS_search_opt_without_h.SHARKINP.tmp ... ok
----------------------
SHARK INTEGRAL PACKAGE
----------------------

Number of atoms                             ...     18
Number of basis functions                   ...    314
Number of shells                            ...    154
Maximum angular momentum                    ...      2
Integral batch strategy                     ... SHARK/LIBINT Hybrid
RI-J (if used) integral strategy            ... SPLIT-RIJ (Revised 2003 algorithm where possible)
Printlevel                                  ...      1
Contraction scheme used                     ... SEGMENTED contraction
Coulomb Range Separation                    ... NOT USED
Exchange Range Separation                   ... Long Range
   Mu parameter                             ...  0.300000
   Scaling (regular/separated)              ...  0.157706  0.842294
Finite Nucleus Model                        ... NOT USED
Auxiliary Coulomb fitting basis             ... AVAILABLE
   # of basis functions in Aux-J            ...    656
   # of shells in Aux-J                     ...    212
   Maximum angular momentum in Aux-J        ...      4
Auxiliary J/K fitting basis                 ... NOT available
Auxiliary Correlation fitting basis         ... NOT available
Auxiliary 'external' fitting basis          ... NOT available
Integral threshold                          ...     2.500000e-11
Primitive cut-off                           ...     2.500000e-12
Primitive pair pre-selection threshold      ...     2.500000e-12

Calculating pre-screening integrals         ... done (  0.1 sec) Dimension = 154
Organizing shell pair data                  ... done (  0.1 sec)
Shell pair information
Total number of shell pairs                 ...     11935
Shell pairs after pre-screening             ...     10243
Total number of primitive shell pairs       ...     38500
Primitive shell pairs kept                  ...     23368
          la=0 lb=0:   3134 shell pairs
          la=1 lb=0:   4172 shell pairs
          la=1 lb=1:   1431 shell pairs
          la=2 lb=0:    847 shell pairs
          la=2 lb=1:    589 shell pairs
          la=2 lb=2:     70 shell pairs

Calculating one electron integrals          ... done (  0.0 sec)
Calculating RI/J V-Matrix + Cholesky decomp.... done (  0.0 sec)
Calculating Nuclear repulsion               ... done (  0.0 sec) ENN=    809.587250166998 Eh

SHARK setup successfully completed in   0.4 seconds

Maximum memory used throughout the entire GTOINT-calculation: 17.0 MB


           ************************************************************
           *        Program running with 24 parallel MPI-processes    *
           *              working on a common directory               *
           ************************************************************
-------------------------------------------------------------------------------
                                 ORCA SCF
-------------------------------------------------------------------------------

------------
SCF SETTINGS
------------
Hamiltonian:
 Density Functional     Method          .... DFT(GTOs)
 Exchange Functional    Exchange        .... WB97X
 Correlation Functional Correlation     .... WB97X
 Gradients option       PostSCFGGA      .... off
 Hybrid DFT is turned on
   Fraction HF Exchange ScalHFX         ....  0.157706
   Scaling of DF-GGA-X  ScalDFX         ....  0.000000
   Scaling of DF-GGA-C  ScalDFC         ....  1.000000
   Scaling of DF-LDA-C  ScalLDAC        ....  1.000000
   Perturbative correction              ....  0.000000
   Density functional embedding theory  .... OFF
 Long-range corrected/Screened/Range-Separated Hybrid DFT is turned on
   Amount of maximum screened exact exchange              ....  0.842294
   Range separation parameter mu (erf(mu*r12)/r12)        ....  0.300000
 RI-approximation to the Coulomb term is turned on
   Number of AuxJ basis functions       .... 656
   RIJ-COSX (HFX calculated with COS-X)).... on


General Settings:
 Integral files         IntName         .... TS_search_opt_without_h
 Hartree-Fock type      HFTyp           .... RHF
 Total Charge           Charge          ....   -1
 Multiplicity           Mult            ....    1
 Number of Electrons    NEL             ....   98
 Basis Dimension        Dim             ....  314
 Nuclear Repulsion      ENuc            ....    809.5872501670 Eh

Convergence Acceleration:
 DIIS                   CNVDIIS         .... on
   Start iteration      DIISMaxIt       ....    12
   Startup error        DIISStart       ....  0.200000
   # of expansion vecs  DIISMaxEq       ....     5
   Bias factor          DIISBfac        ....   1.050
   Max. coefficient     DIISMaxC        ....  10.000
 Trust-Rad. Augm. Hess. CNVTRAH         .... auto
   Auto Start mean grad. ratio tolernc. ....  1.125000
   Auto Start start iteration           ....     1
   Auto Start num. interpolation iter.  ....    10
   Max. Number of Micro iterations      ....    16
   Max. Number of Macro iterations      .... Maxiter - #DIIS iter
   Number of Davidson start vectors     ....     2
   Converg. threshold I  (grad. norm)   ....   1.000e-05
   Converg. threshold II (energy diff.) ....   1.000e-08
   Grad. Scal. Fac. for Micro threshold ....   0.100
   Minimum threshold for Micro iter.    ....   0.010
   NR start threshold (gradient norm)   ....   0.001
   Initial trust radius                 ....   0.400
   Minimum AH scaling param. (alpha)    ....   1.000
   Maximum AH scaling param. (alpha)    .... 1000.000
   Orbital update algorithm             .... Taylor
   White noise on init. David. guess    .... on
   Maximum white noise                  ....   0.010
   Quad. conv. algorithm                .... NR
 SOSCF                  CNVSOSCF        .... on
   Start iteration      SOSCFMaxIt      ....   150
   Startup grad/error   SOSCFStart      ....  0.003300
 Level Shifting         CNVShift        .... on
   Level shift para.    LevelShift      ....    0.2500
   Turn off err/grad.   ShiftErr        ....    0.0010
 Zerner damping         CNVZerner       .... off
 Static damping         CNVDamp         .... on
   Fraction old density DampFac         ....    0.7000
   Max. Damping (<1)    DampMax         ....    0.9800
   Min. Damping (>=0)   DampMin         ....    0.0000
   Turn off err/grad.   DampErr         ....    0.1000
 Fernandez-Rico         CNVRico         .... off

SCF Procedure:
 Maximum # iterations   MaxIter         ....   125
 SCF integral mode      SCFMode         .... Direct
   Integral package                     .... SHARK and LIBINT hybrid scheme
 Reset frequency        DirectResetFreq ....    20
 Integral Threshold     Thresh          ....  2.500e-11 Eh
 Primitive CutOff       TCut            ....  2.500e-12 Eh

Convergence Tolerance:
 Convergence Check Mode ConvCheckMode   .... Total+1el-Energy
 Convergence forced     ConvForced      .... 0
 Energy Change          TolE            ....  1.000e-08 Eh
 1-El. energy change                    ....  1.000e-05 Eh
 Orbital Gradient       TolG            ....  1.000e-05
 Orbital Rotation angle TolX            ....  1.000e-05
 DIIS Error             TolErr          ....  5.000e-07


Diagonalization of the overlap matrix:
Smallest eigenvalue                        ... 2.784e-06
Time for diagonalization                   ...    0.021 sec
Threshold for overlap eigenvalues          ... 1.000e-08
Number of eigenvalues below threshold      ... 0
Time for construction of square roots      ...    0.264 sec
Total time needed                          ...    0.286 sec

---------------------
INITIAL GUESS: MOREAD
---------------------
Guess MOs are being read from file: TS_search_opt_without_h.gbw
Input Geometry matches current geometry (good)
Input basis set matches current basis set (good)
MOs were renormalized
MOs were reorthogonalized (Cholesky)
                      ------------------
                      INITIAL GUESS DONE (   0.0 sec)
                      ------------------
-------------------
DFT GRID GENERATION
-------------------

General Integration Accuracy     IntAcc      ... 4.388
Radial Grid Type                 RadialGrid  ... OptM3 with GC (2021)
Angular Grid (max. ang.)         AngularGrid ... 4 (Lebedev-302)
Angular grid pruning method      GridPruning ... 4 (adaptive)
Weight generation scheme         WeightScheme... Becke
Basis function cutoff            BFCut       ... 1.0000e-11
Integration weight cutoff        WCut        ... 1.0000e-14
Angular grids for H and He will be reduced by one unit
Partially contracted basis set               ... off
Rotationally invariant grid construction     ... off

Total number of grid points                  ...    97713
Total number of batches                      ...     1537
Average number of points per batch           ...       63
Average number of grid points per atom       ...     5428
Time for grid setup =    0.836 sec

--------------------
COSX GRID GENERATION
--------------------

GRIDX 1
-------
General Integration Accuracy     IntAcc      ... 3.816
Radial Grid Type                 RadialGrid  ... OptM3 with GC (2021)
Angular Grid (max. ang.)         AngularGrid ... 1 (Lebedev-50)
Angular grid pruning method      GridPruning ... 4 (adaptive)
Weight generation scheme         WeightScheme... Becke
Basis function cutoff            BFCut       ... 1.0000e-11
Integration weight cutoff        WCut        ... 1.0000e-14
Angular grids for H and He will be reduced by one unit
Partially contracted basis set               ... on
Rotationally invariant grid construction     ... off

Total number of grid points                  ...    12184
Total number of batches                      ...      199
Average number of points per batch           ...       61
Average number of grid points per atom       ...      677
UseSFitting                                  ... on

GRIDX 2
-------
General Integration Accuracy     IntAcc      ... 4.020
Radial Grid Type                 RadialGrid  ... OptM3 with GC (2021)
Angular Grid (max. ang.)         AngularGrid ... 2 (Lebedev-110)
Angular grid pruning method      GridPruning ... 4 (adaptive)
Weight generation scheme         WeightScheme... Becke
Basis function cutoff            BFCut       ... 1.0000e-11
Integration weight cutoff        WCut        ... 1.0000e-14
Angular grids for H and He will be reduced by one unit
Partially contracted basis set               ... on
Rotationally invariant grid construction     ... off

Total number of grid points                  ...    30633
Total number of batches                      ...      489
Average number of points per batch           ...       62
Average number of grid points per atom       ...     1702
UseSFitting                                  ... on

GRIDX 3
-------
General Integration Accuracy     IntAcc      ... 4.338
Radial Grid Type                 RadialGrid  ... OptM3 with GC (2021)
Angular Grid (max. ang.)         AngularGrid ... 3 (Lebedev-194)
Angular grid pruning method      GridPruning ... 4 (adaptive)
Weight generation scheme         WeightScheme... Becke
Basis function cutoff            BFCut       ... 1.0000e-11
Integration weight cutoff        WCut        ... 1.0000e-14
Angular grids for H and He will be reduced by one unit
Partially contracted basis set               ... on
Rotationally invariant grid construction     ... off

Total number of grid points                  ...    67990
Total number of batches                      ...     1072
Average number of points per batch           ...       63
Average number of grid points per atom       ...     3777
UseSFitting                                  ... on

Time for X-Grid setup             =    0.791 sec


--------------------
CPCM SOLVATION MODEL
--------------------
CPCM parameters:
  Epsilon                                         ...      78.3550
  Refrac                                          ...       1.3328
  Rsolv                                           ...       1.3000
  Surface type                                    ... GAUSSIAN VDW
  Epsilon function type                           ...         CPCM
Solvent:                                     ... WATER
SMD-CDS solvent descriptors:
  Soln                                       ...    1.3328
  Soln25                                     ...    1.3323
  Sola                                       ...    0.0000
  Solb                                       ...    0.0000
  Solg                                       ...    0.0000
  Solc                                       ...    0.0000
  Solh                                       ...    0.0000
Radii:
 Radius for C  used is    3.4960 Bohr (=   1.8500 Ang.)
 Radius for N  used is    3.5716 Bohr (=   1.8900 Ang.)
 Radius for O  used is    2.8724 Bohr (=   1.5200 Ang.)
 Radius for F  used is    3.2692 Bohr (=   1.7300 Ang.)
 Radius for H  used is    2.2677 Bohr (=   1.2000 Ang.)
 Radius for S  used is    4.7054 Bohr (=   2.4900 Ang.)
Calculating surface                               ...        done! (  0.0s)
GEPOL surface points                              ...         1069
GEPOL Volume                                      ...    1278.9033
GEPOL Surface-area                                ...     719.3552
Calculating surface distance matrix               ...        done! (  0.0s)
Performing Cholesky decomposition & store         ...        done! (  0.1s)
Overall time for CPCM initialization              ...                 0.1s
--------------
SCF ITERATIONS
--------------
ITER       Energy         Delta-E        Max-DP      RMS-DP      [F,P]     Damp
               ***  Starting incremental Fock matrix formation  ***
                      *** Initiating the SOSCF procedure ***
                      *** Re-Reading the Fockian *** 
                      *** Removing any level shift *** 
ITER      Energy       Delta-E        Grad      Rot      Max-DP    RMS-DP
  0   -990.26784983 -990.2678498272  0.000004  0.000004  0.036845  0.000228
               *** Restarting incremental Fock matrix formation ***
  1   -990.26784983  -0.0000000015  0.000004  0.000014  0.027047  0.000160
  2   -990.26784983   0.0000000030  0.000003  0.000017  0.039545  0.000220
                  ***Gradient check signals convergence***
              ***Rediagonalizing the Fockian in SOSCF/NRSCF***

               *****************************************************
               *                     SUCCESS                       *
               *           SCF CONVERGED AFTER   3 CYCLES          *
               *****************************************************

Old exchange energy                            =    -28.484507706 Eh
New exchange energy                            =    -28.484509385 Eh
Exchange energy change after final integration =     -0.000001679 Eh
Total energy after final integration           =   -990.267851507 Eh
Final COS-X integration done in                =     4.144 sec

SMD CDS free energy correction energy :                 5.41589     Kcal/mol
Total Energy after SMD CDS correction =              -990.259220733 Eh

----------------
TOTAL SCF ENERGY
----------------

Total Energy       :         -990.25922073 Eh          -26946.32332 eV

Components:
Nuclear Repulsion  :          809.58725017 Eh           22029.98906 eV
Electronic Energy  :        -1799.84647090 Eh          -48976.31238 eV
One Electron Energy:        -2983.76415989 Eh          -81192.35053 eV
Two Electron Energy:         1183.91768899 Eh           32216.03815 eV
Max COSX asymmetry :            0.00000299 Eh               0.00008 eV
CPCM Dielectric    :           -0.10320375 Eh              -2.80832 eV
SMD CDS (Gcds)     :            0.00863077 Eh               0.23486 eV

Virial components:
Potential Energy   :        -1978.35145353 Eh          -53833.67990 eV
Kinetic Energy     :          988.09223279 Eh           26887.35658 eV
Virial Ratio       :            2.00219310


DFT components:
N(Alpha)           :       49.000021443102 electrons
N(Beta)            :       49.000021443102 electrons
N(Total)           :       98.000042886204 electrons
E(XC)              :      -73.545752772593 Eh       
DFET-embed. en.    :        0.000000000000 Eh       
CPCM Solvation Model Properties:
Surface-charge          :            0.95148220
Charge-correction       :           -0.00607515 Eh              -0.16531 eV
Free-energy (cav+disp)  :            0.00863077 Eh               0.23486 eV

---------------
SCF CONVERGENCE
---------------

  Last Energy change         ...   -2.2585e-09  Tolerance :   1.0000e-08
  Last MAX-Density change    ...    7.1054e-15  Tolerance :   1.0000e-07
  Last RMS-Density change    ...    5.4467e-17  Tolerance :   5.0000e-09
  Last Orbital Gradient      ...    1.3399e-06  Tolerance :   1.0000e-05
  Last Orbital Rotation      ...    4.1985e-06  Tolerance :   1.0000e-05

             **** THE GBW FILE WAS UPDATED (TS_search_opt_without_h.gbw) ****
             **** DENSITY TS_search_opt_without_h.scfp WAS UPDATED ****
             **** ENERGY FILE WAS UPDATED (TS_search_opt_without_h.en.tmp) ****
             **** THE GBW FILE WAS UPDATED (TS_search_opt_without_h.gbw) ****
             **** DENSITY TS_search_opt_without_h.scfp WAS UPDATED ****
----------------
ORBITAL ENERGIES
----------------

  NO   OCC          E(Eh)            E(eV) 
   0   2.0000     -88.749849     -2415.0062 
   1   2.0000     -24.749493      -673.4679 
   2   2.0000     -19.231515      -523.3161 
   3   2.0000     -19.227021      -523.1938 
   4   2.0000     -14.645380      -398.5211 
   5   2.0000     -14.396491      -391.7484 
   6   2.0000     -10.414192      -283.3846 
   7   2.0000     -10.314996      -280.6853 
   8   2.0000     -10.311165      -280.5811 
   9   2.0000     -10.293836      -280.1095 
  10   2.0000     -10.260684      -279.2074 
  11   2.0000     -10.248263      -278.8694 
  12   2.0000      -7.945677      -216.2129 
  13   2.0000      -5.908686      -160.7835 
  14   2.0000      -5.902788      -160.6230 
  15   2.0000      -5.900055      -160.5487 
  16   2.0000      -1.376304       -37.4511 
  17   2.0000      -1.356805       -36.9205 
  18   2.0000      -1.189472       -32.3672 
  19   2.0000      -1.094627       -29.7863 
  20   2.0000      -0.986170       -26.8350 
  21   2.0000      -0.922140       -25.0927 
  22   2.0000      -0.850289       -23.1375 
  23   2.0000      -0.843810       -22.9612 
  24   2.0000      -0.771442       -20.9920 
  25   2.0000      -0.743245       -20.2247 
  26   2.0000      -0.697152       -18.9705 
  27   2.0000      -0.688810       -18.7435 
  28   2.0000      -0.668550       -18.1922 
  29   2.0000      -0.662314       -18.0225 
  30   2.0000      -0.650237       -17.6939 
  31   2.0000      -0.620368       -16.8811 
  32   2.0000      -0.594609       -16.1801 
  33   2.0000      -0.592090       -16.1116 
  34   2.0000      -0.539286       -14.6747 
  35   2.0000      -0.517925       -14.0934 
  36   2.0000      -0.507179       -13.8010 
  37   2.0000      -0.501454       -13.6452 
  38   2.0000      -0.498858       -13.5746 
  39   2.0000      -0.495857       -13.4929 
  40   2.0000      -0.439058       -11.9474 
  41   2.0000      -0.427970       -11.6457 
  42   2.0000      -0.417101       -11.3499 
  43   2.0000      -0.411374       -11.1941 
  44   2.0000      -0.403428       -10.9778 
  45   2.0000      -0.388199       -10.5634 
  46   2.0000      -0.356780        -9.7085 
  47   2.0000      -0.280326        -7.6280 
  48   2.0000      -0.266786        -7.2596 
  49   0.0000      -0.022489        -0.6120 
  50   0.0000       0.051310         1.3962 
  51   0.0000       0.055592         1.5127 
  52   0.0000       0.062281         1.6948 
  53   0.0000       0.069017         1.8780 
  54   0.0000       0.076196         2.0734 
  55   0.0000       0.083834         2.2812 
  56   0.0000       0.088687         2.4133 
  57   0.0000       0.094705         2.5770 
  58   0.0000       0.102383         2.7860 
  59   0.0000       0.114693         3.1210 
  60   0.0000       0.128029         3.4839 
  61   0.0000       0.130591         3.5536 
  62   0.0000       0.131714         3.5841 
  63   0.0000       0.140296         3.8176 
  64   0.0000       0.150012         4.0820 
  65   0.0000       0.164502         4.4763 
  66   0.0000       0.166206         4.5227 
  67   0.0000       0.169360         4.6085 
  68   0.0000       0.176665         4.8073 
  69   0.0000       0.178665         4.8617 
  70   0.0000       0.182672         4.9708 
  71   0.0000       0.188323         5.1245 
  72   0.0000       0.190826         5.1927 
  73   0.0000       0.196835         5.3562 
  74   0.0000       0.198670         5.4061 
  75   0.0000       0.203457         5.5364 
  76   0.0000       0.214534         5.8378 
  77   0.0000       0.216116         5.8808 
  78   0.0000       0.221689         6.0325 
  79   0.0000       0.227583         6.1928 
  80   0.0000       0.230817         6.2809 
  81   0.0000       0.234866         6.3910 
  82   0.0000       0.244095         6.6422 
  83   0.0000       0.248870         6.7721 
  84   0.0000       0.251909         6.8548 
  85   0.0000       0.260404         7.0860 
  86   0.0000       0.264272         7.1912 
  87   0.0000       0.276045         7.5116 
  88   0.0000       0.278331         7.5738 
  89   0.0000       0.286480         7.7955 
  90   0.0000       0.289287         7.8719 
  91   0.0000       0.293572         7.9885 
  92   0.0000       0.309473         8.4212 
  93   0.0000       0.315587         8.5876 
  94   0.0000       0.322637         8.7794 
  95   0.0000       0.327410         8.9093 
  96   0.0000       0.335522         9.1300 
  97   0.0000       0.340981         9.2786 
  98   0.0000       0.347276         9.4499 
  99   0.0000       0.354345         9.6422 
 100   0.0000       0.358452         9.7540 
 101   0.0000       0.365896         9.9565 
 102   0.0000       0.368112        10.0168 
 103   0.0000       0.374079        10.1792 
 104   0.0000       0.384392        10.4599 
 105   0.0000       0.386234        10.5100 
 106   0.0000       0.395069        10.7504 
[...]
      7      -0.001649   0.000326   0.053062  -0.078688  -0.052376   0.131317
      8      -0.007890   0.004808   0.158329  -0.177189  -0.073634   0.339311
      9       0.005904  -0.003590  -0.134980  -0.076126  -0.423176  -0.076714
     10      -0.001190   0.000799   0.023244   0.037952   0.078300  -0.046598
     11       0.000761  -0.000030  -0.005391   0.067970  -0.008427  -0.177057
     12       0.000294   0.000136  -0.000158   0.000937   0.267501   0.176333
     13       0.002562  -0.001686  -0.060974   0.008196  -0.039247   0.082503
     14       0.006997  -0.004081  -0.162515   0.027877   0.052454   0.328762
     15      -0.003174   0.000140   0.052850  -0.002383  -0.191743  -0.001487
     16      -0.000983   0.001145   0.048605  -0.044825   0.121281  -0.101677
     17      -0.005213   0.002067   0.151925  -0.105199   0.172572  -0.260585
     18      -0.005697   0.007776   0.026456  -0.204897  -0.033992  -0.048414
     19      -0.001062  -0.000474   0.057234   0.316235  -0.075188   0.038339
     20      -0.004163   0.002090   0.099551   0.432124  -0.149750   0.044974
     21       0.001512  -0.001286  -0.021884  -0.010601   0.009346   0.011107
     22       0.002671  -0.001845  -0.055006  -0.139219   0.050008  -0.002225
     23       0.004905  -0.003228  -0.093894  -0.223312   0.085297  -0.000300
     24       0.003204  -0.004402  -0.004875   0.175153   0.020616   0.026203
     25      -0.001479   0.002125  -0.001355  -0.115192  -0.000070  -0.019629
     26      -0.001062   0.001745  -0.003610  -0.117716   0.009070  -0.022596
     27      -0.000544   0.000374   0.010933  -0.013356  -0.011058   0.002584
     28       0.000207  -0.000066  -0.002253   0.000236   0.001742   0.005425
     29       0.000755  -0.000977   0.001389  -0.015631   0.016403   0.002593
     30      -0.017674   0.008680   0.295781  -0.208819   0.072835   0.256387
     31       0.012572  -0.004315  -0.194102   0.218505   0.077308  -0.175032
     32       0.033121  -0.014822  -0.450096   0.553806   0.270126  -0.413365
     33      -0.028203   0.016742   0.589593  -0.027810   0.487182   0.004042
     34       0.006381  -0.003255  -0.124171   0.034964  -0.108604  -0.074594
     35       0.002542  -0.001206  -0.043143   0.081849  -0.058272  -0.223652
     36      -0.013845   0.007605   0.284701   0.003440   0.096402  -0.277271
     37      -0.002107   0.000575   0.026979   0.015902  -0.128716  -0.069237
     38      -0.012308   0.005932   0.228090   0.061964  -0.277407  -0.342077
     39       0.041598  -0.008948   0.002912   0.002707   0.000607   0.003364
     40       0.031198   0.051088   0.000170   0.001923   0.000591  -0.000180
     41      -0.032478   0.034294  -0.007712   0.006645   0.001566   0.000360
     42      -0.269513  -0.052247  -0.023954  -0.007021   0.005961  -0.007150
     43      -0.382928  -0.581544  -0.011240  -0.001439   0.006215   0.001481
     44      -0.304161   0.167726  -0.037402  -0.007645   0.005614  -0.017288
     45       0.211145   0.365387   0.022013  -0.028466  -0.013068  -0.024535
     46       0.183682  -0.372679   0.047849  -0.024539  -0.008313   0.002935
     47       0.304684  -0.442137   0.078027  -0.049723  -0.020272  -0.007657
     48      -0.501552  -0.198402  -0.036383  -0.005513   0.014568  -0.013635
     49      -0.233195   0.280605  -0.061822   0.043056   0.014020   0.007617
     50       0.451923  -0.200467   0.079673  -0.036456  -0.010817   0.004864
     51       0.002105  -0.000039   0.001490  -0.002405  -0.002448   0.001210
     52       0.001605   0.002559  -0.000611  -0.000437  -0.000748   0.005257
     53      -0.001990   0.001943  -0.000526  -0.001350  -0.000160  -0.000120
                 48         49         50         51         52         53    
      0       0.000532   0.000428  -0.000467   0.000740   0.000251  -0.000026
      1       0.000727  -0.000034  -0.000270   0.000718  -0.000242   0.000080
      2      -0.000023   0.000040  -0.000085   0.001294  -0.000010   0.000405
      3      -0.000410  -0.000252   0.000316   0.000415   0.000185   0.000042
      4       0.000073   0.000238  -0.000080   0.000192   0.000087   0.000149
      5      -0.000381  -0.000235   0.000267   0.000736   0.000331   0.000339
      6      -0.000016   0.000140  -0.000009  -0.079766  -0.009820  -0.011360
      7       0.000152   0.000154  -0.000063  -0.001943   0.000451   0.000944
      8       0.000265   0.000160  -0.000159  -0.033627  -0.002312  -0.001561
      9      -0.000086  -0.000123   0.000090   0.004425  -0.001889  -0.010148
     10       0.000151   0.000197  -0.000156   0.003023  -0.016421  -0.022581
     11      -0.000093  -0.000067   0.000102   0.010560  -0.046846  -0.068829
     12       0.000079   0.000061  -0.000119   0.001555  -0.056371   0.045023
     13      -0.000004   0.000027   0.000018  -0.000616   0.025119  -0.017945
     14       0.000165   0.000139  -0.000126  -0.000731   0.034561  -0.021831
     15      -0.000210  -0.000527   0.000243   0.000227  -0.000069   0.000179
     16      -0.000079   0.000095   0.000021  -0.000209  -0.000920   0.000889
     17      -0.000087  -0.000133   0.000091  -0.000313  -0.002630   0.002623
     18       0.000043   0.000414  -0.000117   0.000134  -0.000774   0.000574
     19       0.000037   0.000011  -0.000009   0.000018   0.000450  -0.000331
     20       0.000080   0.000244  -0.000080   0.000081   0.000633  -0.000407
     21       0.000006  -0.000045   0.000023  -0.000036   0.000147  -0.000155
     22      -0.000058  -0.000091   0.000017  -0.000046   0.000000  -0.000001
     23      -0.000040  -0.000143   0.000041  -0.000074   0.000041  -0.000051
     24       0.000009  -0.000141   0.000035  -0.000087   0.000048  -0.000077
     25       0.000006   0.000064  -0.000014   0.000037  -0.000267   0.000179
     26      -0.000019   0.000023  -0.000007   0.000034  -0.000583   0.000347
     27      -0.000005   0.000007   0.000020  -0.000030  -0.000007   0.000008
     28      -0.000105   0.000004   0.000044  -0.000050   0.000033   0.000003
     29       0.000074  -0.000003  -0.000048  -0.000188  -0.000009  -0.000045
     30      -0.000316  -0.001989   0.000627   0.901956   0.095078   0.098236
     31      -0.000004  -0.000093  -0.000052   0.028006   0.002057   0.001809
     32      -0.000387  -0.001110   0.000526   0.394126   0.039031   0.038770
     33       0.000108   0.000135  -0.000080  -0.020094   0.058694   0.087875
     34       0.000090   0.000237  -0.000129  -0.046524   0.181706   0.255593
     35       0.000291   0.000599  -0.000358  -0.140050   0.536780   0.757179
     36       0.000354   0.000545   0.000125  -0.018751   0.660299  -0.473127
     37      -0.000042  -0.000140  -0.000095   0.007921  -0.283887   0.201794
     38      -0.000310  -0.000432   0.000047   0.010410  -0.375058   0.263793
     39       0.040579  -0.037667  -0.041863  -0.000056  -0.000001  -0.000020
     40      -0.009077   0.044413  -0.078366   0.000128  -0.000032  -0.000027
     41       0.022409   0.073695   0.027226   0.000162  -0.000065   0.000030
     42      -0.498633   0.577652   0.219356   0.000900  -0.000107   0.000128
     43       0.120886  -0.130715  -0.071947  -0.000172   0.000056  -0.000025
     44       0.365616  -0.403394  -0.157851  -0.000539   0.000051  -0.000101
     45       0.127868   0.018693   0.194369   0.000091  -0.000127   0.000001
     46       0.416835   0.104914   0.691087  -0.000163  -0.000259   0.000227
     47      -0.268679  -0.045730  -0.453889   0.000119   0.000125  -0.000222
     48      -0.113875  -0.154239   0.085004  -0.000559   0.000055  -0.000101
     49      -0.437159  -0.509940   0.317212  -0.001719   0.000660   0.000173
     50      -0.366713  -0.424735   0.289668  -0.001454   0.000388  -0.000064
     51       0.000074   0.000278  -0.000047  -0.000009   0.000012   0.000005
     52      -0.000077  -0.000057   0.000108  -0.000073   0.000032   0.000016
     53       0.000132  -0.000098  -0.000084   0.000005   0.000007   0.000006


-----------
IR SPECTRUM
-----------

 Mode   freq       eps      Int      T**2         TX        TY        TZ
       cm**-1   L/(mol*cm) km/mol    a.u.
----------------------------------------------------------------------------
  8:     33.99   0.001744    8.81  0.016015  (-0.043995  0.063078  0.100501)
  9:     76.31   0.002005   10.13  0.008198  ( 0.008845  0.083028 -0.035020)
 10:     84.44   0.001306    6.60  0.004828  (-0.059715  0.029583  0.019684)
 11:    113.27   0.001222    6.18  0.003367  (-0.016603  0.053965  0.013370)
 12:    199.85   0.000373    1.88  0.000582  ( 0.016701  0.008946 -0.014944)
 13:    231.29   0.001331    6.73  0.001796  (-0.001546  0.042313  0.001747)
 14:    245.16   0.001979   10.00  0.002519  ( 0.028285 -0.035108  0.022044)
 15:    277.09   0.004559   23.04  0.005134  ( 0.007291 -0.071026 -0.006015)
 16:    385.24   0.000056    0.28  0.000045  ( 0.001608  0.002933  0.005832)
 17:    400.88   0.026898  135.93  0.020939  (-0.045021  0.136844 -0.013630)
 18:    452.94   0.037505  189.53  0.025840  ( 0.021904 -0.159166  0.005096)
 19:    473.63   0.004665   23.57  0.003074  ( 0.035172 -0.041154 -0.011956)
 20:    568.04   0.003908   19.75  0.002147  ( 0.005704 -0.024151  0.039129)
 21:    584.11   0.006224   31.45  0.003325  ( 0.031758  0.045392  0.016002)
 22:    676.62   0.035092  177.34  0.016185  (-0.002058  0.126030  0.017230)
 23:    688.86   0.102972  520.38  0.046648  ( 0.029562 -0.206437  0.056192)
 24:    748.32   0.000140    0.71  0.000059  (-0.004238  0.002864 -0.005691)
 25:    758.16   0.022729  114.86  0.009355  (-0.012384 -0.089705  0.033985)
 26:    812.41   0.001521    7.69  0.000584  (-0.009800 -0.006723  0.021049)
 27:    829.38   0.012673   64.04  0.004768  (-0.010531 -0.061001  0.030598)
 28:    900.38   0.018659   94.30  0.006467  ( 0.061527 -0.007120  0.051293)
 29:    968.60   0.002412   12.19  0.000777  ( 0.010202  0.025652  0.003860)
 30:    982.49   0.001850    9.35  0.000588  ( 0.008322 -0.004773 -0.022261)
 31:   1009.47   0.000041    0.21  0.000013  ( 0.002246  0.002746  0.000047)
 32:   1022.96   0.001273    6.43  0.000388  (-0.009611 -0.016946  0.002944)
 33:   1070.90   0.122297  618.04  0.035638  ( 0.162523 -0.092698  0.025117)
 34:   1096.84   0.051099  258.23  0.014538  ( 0.093408 -0.044634  0.061814)
 35:   1176.18   0.078581  397.12  0.020849  ( 0.136231 -0.031550 -0.035984)
 36:   1188.30   0.203035  1026.06  0.053320  ( 0.202218 -0.111148 -0.008585)
 37:   1267.83   0.106603  538.73  0.026239  ( 0.132789 -0.073990  0.055962)
 38:   1291.43   0.146449  740.09  0.035388  ( 0.163638 -0.061448  0.069533)
 39:   1367.08   0.003740   18.90  0.000854  ( 0.021722 -0.019392  0.002415)
 40:   1397.40   0.153713  776.80  0.034327  ( 0.159395 -0.033783  0.088197)
 41:   1431.53   0.038283  193.47  0.008345  (-0.044740 -0.042440 -0.067399)
 42:   1464.06   0.002367   11.96  0.000504  (-0.003669 -0.018536  0.012142)
 43:   1469.83   0.001151    5.82  0.000244  ( 0.003181 -0.012153 -0.009306)
 44:   1489.00   0.017008   85.95  0.003565  (-0.032583  0.030753  0.039460)
 45:   1543.67   0.155840  787.55  0.031504  (-0.007798  0.093147  0.150887)
 46:   1625.53   0.085389  431.52  0.016393  ( 0.109747 -0.053027 -0.039198)
 47:   1660.42   0.109574  553.74  0.020594  ( 0.025499  0.084647  0.113041)
 48:   3050.27   0.016879   85.30  0.001727  ( 0.034266 -0.011187  0.020677)
 49:   3126.31   0.009720   49.12  0.000970  (-0.016840  0.018188  0.018864)
 50:   3134.43   0.004710   23.80  0.000469  (-0.009224 -0.018708  0.005816)
 51:   3204.72   0.004681   23.66  0.000456  (-0.017578 -0.004695 -0.011172)
 52:   3244.10   0.000390    1.97  0.000037  ( 0.005218 -0.000526 -0.003160)
 53:   3256.73   0.000555    2.81  0.000053  (-0.006600  0.002849 -0.001245)

* The epsilon (eps) is given for a Dirac delta lineshape.
** The dipole moment derivative (T) already includes vibrational overlap.

The first frequency considered to be a vibration is 8
The total number of vibrations considered is 46


--------------------------
THERMOCHEMISTRY AT 298.15K
--------------------------

Temperature         ... 298.15 K
Pressure            ... 1.00 atm
Total Mass          ... 189.18 AMU

Throughout the following assumptions are being made:
  (1) The electronic state is orbitally nondegenerate
  (2) There are no thermally accessible electronically excited states
  (3) Hindered rotations indicated by low frequency modes are not
      treated as such but are treated as vibrations and this may
      cause some error
  (4) All equations used are the standard statistical mechanics
      equations for an ideal gas
  (5) All vibrations are strictly harmonic

freq.      33.99  E(vib)   ...       0.55 
freq.      76.31  E(vib)   ...       0.49 
freq.      84.44  E(vib)   ...       0.48 
freq.     113.27  E(vib)   ...       0.45 
freq.     199.85  E(vib)   ...       0.35 
freq.     231.29  E(vib)   ...       0.32 
freq.     245.16  E(vib)   ...       0.31 
freq.     277.09  E(vib)   ...       0.28 
freq.     385.24  E(vib)   ...       0.20 
freq.     400.88  E(vib)   ...       0.19 
freq.     452.94  E(vib)   ...       0.16 
freq.     473.63  E(vib)   ...       0.15 
freq.     568.04  E(vib)   ...       0.11 
freq.     584.11  E(vib)   ...       0.11 
freq.     676.62  E(vib)   ...       0.08 
freq.     688.86  E(vib)   ...       0.07 
freq.     748.32  E(vib)   ...       0.06 
freq.     758.16  E(vib)   ...       0.06 
freq.     812.41  E(vib)   ...       0.05 
freq.     829.38  E(vib)   ...       0.04 
freq.     900.38  E(vib)   ...       0.03 
freq.     968.60  E(vib)   ...       0.03 
freq.     982.49  E(vib)   ...       0.02 
freq.    1009.47  E(vib)   ...       0.02 
freq.    1022.96  E(vib)   ...       0.02 
freq.    1070.90  E(vib)   ...       0.02 
freq.    1096.84  E(vib)   ...       0.02 
freq.    1176.18  E(vib)   ...       0.01 
freq.    1188.30  E(vib)   ...       0.01 
freq.    1267.83  E(vib)   ...       0.01 
freq.    1291.43  E(vib)   ...       0.01 
freq.    1367.08  E(vib)   ...       0.01 
freq.    1397.40  E(vib)   ...       0.00 
freq.    1431.53  E(vib)   ...       0.00 
freq.    1464.06  E(vib)   ...       0.00 
freq.    1469.83  E(vib)   ...       0.00 
freq.    1489.00  E(vib)   ...       0.00 
freq.    1543.67  E(vib)   ...       0.00 
freq.    1625.53  E(vib)   ...       0.00 
freq.    1660.42  E(vib)   ...       0.00 
freq.    3050.27  E(vib)   ...       0.00 
freq.    3126.31  E(vib)   ...       0.00 
freq.    3134.43  E(vib)   ...       0.00 
freq.    3204.72  E(vib)   ...       0.00 
freq.    3244.10  E(vib)   ...       0.00 
freq.    3256.73  E(vib)   ...       0.00 

------------
INNER ENERGY
------------

The inner energy is: U= E(el) + E(ZPE) + E(vib) + E(rot) + E(trans)
    E(el)   - is the total energy from the electronic structure calculation
              = E(kin-el) + E(nuc-el) + E(el-el) + E(nuc-nuc)
    E(ZPE)  - the the zero temperature vibrational energy from the frequency calculation
    E(vib)  - the the finite temperature correction to E(ZPE) due to population
              of excited vibrational states
    E(rot)  - is the rotational thermal energy
    E(trans)- is the translational thermal energy

Summary of contributions to the inner energy U:
Electronic energy                ...   -990.26765126 Eh
Zero point energy                ...      0.12092617 Eh      75.88 kcal/mol
Thermal vibrational correction   ...      0.00756440 Eh       4.75 kcal/mol
Thermal rotational correction    ...      0.00141627 Eh       0.89 kcal/mol
Thermal translational correction ...      0.00141627 Eh       0.89 kcal/mol
-----------------------------------------------------------------------
Total thermal energy                   -990.13632816 Eh


Summary of corrections to the electronic energy:
(perhaps to be used in another calculation)
Total thermal correction                  0.01039694 Eh       6.52 kcal/mol
Non-thermal (ZPE) correction              0.12092617 Eh      75.88 kcal/mol
-----------------------------------------------------------------------
Total correction                          0.13132311 Eh      82.41 kcal/mol


--------
ENTHALPY
--------

The enthalpy is H = U + kB*T
                kB is Boltzmann's constant
Total free energy                 ...   -990.13632816 Eh 
Thermal Enthalpy correction       ...      0.00094421 Eh       0.59 kcal/mol
-----------------------------------------------------------------------
Total Enthalpy                    ...   -990.13538395 Eh


Note: Only C1 symmetry has been detected, increase convergence thresholds 
      if your molecule has a higher symmetry. Symmetry factor of 1.0 is   
      used for the rotational entropy correction. 
 

Note: Rotational entropy computed according to Herzberg 
Infrared and Raman Spectra, Chapter V,1, Van Nostrand Reinhold, 1945 
Point Group:  C1, Symmetry Number:   1  
Rotational constants in cm-1:     0.035029     0.025540     0.019759 

Vibrational entropy computed according to the QRRHO of S. Grimme
Chem.Eur.J. 2012 18 9955


-------
ENTROPY
-------

The entropy contributions are T*S = T*(S(el)+S(vib)+S(rot)+S(trans))
     S(el)   - electronic entropy
     S(vib)  - vibrational entropy
     S(rot)  - rotational entropy
     S(trans)- translational entropy
The entropies will be listed as multiplied by the temperature to get
units of energy

Electronic entropy                ...      0.00000000 Eh      0.00 kcal/mol
Vibrational entropy               ...      0.01324721 Eh      8.31 kcal/mol
Rotational entropy                ...      0.01467702 Eh      9.21 kcal/mol
Translational entropy             ...      0.01977419 Eh     12.41 kcal/mol
-----------------------------------------------------------------------
Final entropy term                ...      0.04769841 Eh     29.93 kcal/mol

In case the symmetry of your molecule has not been determined correctly
or in case you have a reason to use a different symmetry number we print 
out the resulting rotational entropy values for sn=1,12 :
 --------------------------------------------------------
|  sn= 1 | S(rot)=       0.01467702 Eh      9.21 kcal/mol|
|  sn= 2 | S(rot)=       0.01402256 Eh      8.80 kcal/mol|
|  sn= 3 | S(rot)=       0.01363973 Eh      8.56 kcal/mol|
|  sn= 4 | S(rot)=       0.01336811 Eh      8.39 kcal/mol|
|  sn= 5 | S(rot)=       0.01315742 Eh      8.26 kcal/mol|
|  sn= 6 | S(rot)=       0.01298527 Eh      8.15 kcal/mol|
|  sn= 7 | S(rot)=       0.01283973 Eh      8.06 kcal/mol|
|  sn= 8 | S(rot)=       0.01271365 Eh      7.98 kcal/mol|
|  sn= 9 | S(rot)=       0.01260244 Eh      7.91 kcal/mol|
|  sn=10 | S(rot)=       0.01250296 Eh      7.85 kcal/mol|
|  sn=11 | S(rot)=       0.01241297 Eh      7.79 kcal/mol|
|  sn=12 | S(rot)=       0.01233082 Eh      7.74 kcal/mol|
 --------------------------------------------------------


-------------------
GIBBS FREE ENERGY
-------------------

The Gibbs free energy is G = H - T*S

Total enthalpy                    ...   -990.13538395 Eh 
Total entropy correction          ...     -0.04769841 Eh    -29.93 kcal/mol
-----------------------------------------------------------------------
Final Gibbs free energy         ...   -990.18308236 Eh

For completeness - the Gibbs free energy minus the electronic energy
G-E(el)                           ...      0.08456891 Eh     53.07 kcal/mol



Timings for individual modules:

Sum of individual times         ...    58042.398 sec (= 967.373 min)
GTO integral calculation        ...      103.307 sec (=   1.722 min)   0.2 %
SCF iterations                  ...     2016.859 sec (=  33.614 min)   3.5 %
SCF Gradient evaluation         ...      474.377 sec (=   7.906 min)   0.8 %
Geometry relaxation             ...        2.872 sec (=   0.048 min)   0.0 %
Numerical frequency calculation ...     2403.187 sec (=  40.053 min)   4.1 %
NEB Iterations                  ...    53041.796 sec (= 884.030 min)  91.4 %
                             ****ORCA TERMINATED NORMALLY****
TOTAL RUN TIME: 0 days 16 hours 8 minutes 14 seconds 851 msec
