
                                 *****************
                                 * O   R   C   A *
                                 *****************

                                            #,                                       
                                            ###                                      
                                            ####                                     
                                            #####                                    
                                            ######                                   
                                           ########,                                 
                                     ,,################,,,,,                         
                               ,,#################################,,                 
                          ,,##########################################,,             
                       ,#########################################, ''#####,          
                    ,#############################################,,   '####,        
                  ,##################################################,,,,####,       
                ,###########''''           ''''###############################       
              ,#####''   ,,,,##########,,,,          '''####'''          '####       
            ,##' ,,,,###########################,,,                        '##       
           ' ,,###''''                  '''############,,,                           
         ,,##''                                '''############,,,,        ,,,,,,###''
      ,#''                                            '''#######################'''  
     '                                                          ''''####''''         
             ,#######,   #######,   ,#######,      ##                                
            ,#'     '#,  ##    ##  ,#'     '#,    #''#        ######   ,####,        
            ##       ##  ##   ,#'  ##            #'  '#       #        #'  '#        
            ##       ##  #######   ##           ,######,      #####,   #    #        
            '#,     ,#'  ##    ##  '#,     ,#' ,#      #,         ##   #,  ,#        
             '#######'   ##     ##  '#######'  #'      '#     #####' # '####'        



                  #######################################################
                  #                        -***-                        #
                  #          Department of theory and spectroscopy      #
                  #    Directorship and core code : Frank Neese         #
                  #        Max Planck Institute fuer Kohlenforschung    #
                  #                Kaiser Wilhelm Platz 1               #
                  #                 D-45470 Muelheim/Ruhr               #
                  #                      Germany                        #
                  #                                                     #
                  #                  All rights reserved                #
                  #                        -***-                        #
                  #######################################################


                         Program Version 5.0.4 -  RELEASE  -


 With contributions from (in alphabetic order):
   Daniel Aravena         : Magnetic Suceptibility
   Michael Atanasov       : Ab Initio Ligand Field Theory (pilot matlab implementation)
   Alexander A. Auer      : GIAO ZORA, VPT2 properties, NMR spectrum
   Ute Becker             : Parallelization
   Giovanni Bistoni       : ED, misc. LED, open-shell LED, HFLD
   Martin Brehm           : Molecular dynamics
   Dmytro Bykov           : SCF Hessian
   Vijay G. Chilkuri      : MRCI spin determinant printing, contributions to CSF-ICE
   Dipayan Datta          : RHF DLPNO-CCSD density
   Achintya Kumar Dutta   : EOM-CC, STEOM-CC
   Dmitry Ganyushin       : Spin-Orbit,Spin-Spin,Magnetic field MRCI
   Miquel Garcia          : C-PCM and meta-GGA Hessian, CC/C-PCM, Gaussian charge scheme
   Yang Guo               : DLPNO-NEVPT2, F12-NEVPT2, CIM, IAO-localization
   Andreas Hansen         : Spin unrestricted coupled pair/coupled cluster methods
   Benjamin Helmich-Paris : MC-RPA, TRAH-SCF, COSX integrals
   Lee Huntington         : MR-EOM, pCC
   Robert Izsak           : Overlap fitted RIJCOSX, COSX-SCS-MP3, EOM
   Marcus Kettner         : VPT2
   Christian Kollmar      : KDIIS, OOCD, Brueckner-CCSD(T), CCSD density, CASPT2, CASPT2-K
   Simone Kossmann        : Meta GGA functionals, TD-DFT gradient, OOMP2, MP2 Hessian
   Martin Krupicka        : Initial AUTO-CI
   Lucas Lang             : DCDCAS
   Marvin Lechner         : AUTO-CI (C++ implementation), FIC-MRCC
   Dagmar Lenk            : GEPOL surface, SMD
   Dimitrios Liakos       : Extrapolation schemes; Compound Job, initial MDCI parallelization
   Dimitrios Manganas     : Further ROCIS development; embedding schemes
   Dimitrios Pantazis     : SARC Basis sets
   Anastasios Papadopoulos: AUTO-CI, single reference methods and gradients
   Taras Petrenko         : DFT Hessian,TD-DFT gradient, ASA, ECA, R-Raman, ABS, FL, XAS/XES, NRVS
   Peter Pinski           : DLPNO-MP2, DLPNO-MP2 Gradient
   Christoph Reimann      : Effective Core Potentials
   Marius Retegan         : Local ZFS, SOC
   Christoph Riplinger    : Optimizer, TS searches, QM/MM, DLPNO-CCSD(T), (RO)-DLPNO pert. Triples
   Tobias Risthaus        : Range-separated hybrids, TD-DFT gradient, RPA, STAB
   Michael Roemelt        : Original ROCIS implementation
   Masaaki Saitow         : Open-shell DLPNO-CCSD energy and density
   Barbara Sandhoefer     : DKH picture change effects
   Avijit Sen             : IP-ROCIS
   Kantharuban Sivalingam : CASSCF convergence, NEVPT2, FIC-MRCI
   Bernardo de Souza      : ESD, SOC TD-DFT
   Georgi Stoychev        : AutoAux, RI-MP2 NMR, DLPNO-MP2 response
   Willem Van den Heuvel  : Paramagnetic NMR
   Boris Wezisla          : Elementary symmetry handling
   Frank Wennmohs         : Technical directorship


 We gratefully acknowledge several colleagues who have allowed us to
 interface, adapt or use parts of their codes:
   Stefan Grimme, W. Hujo, H. Kruse, P. Pracht,  : VdW corrections, initial TS optimization,
                  C. Bannwarth, S. Ehlert          DFT functionals, gCP, sTDA/sTD-DF
   Ed Valeev, F. Pavosevic, A. Kumar             : LibInt (2-el integral package), F12 methods
   Garnet Chan, S. Sharma, J. Yang, R. Olivares  : DMRG
   Ulf Ekstrom                                   : XCFun DFT Library
   Mihaly Kallay                                 : mrcc  (arbitrary order and MRCC methods)
   Jiri Pittner, Ondrej Demel                    : Mk-CCSD
   Frank Weinhold                                : gennbo (NPA and NBO analysis)
   Christopher J. Cramer and Donald G. Truhlar   : smd solvation model
   Lars Goerigk                                  : TD-DFT with DH, B97 family of functionals
   V. Asgeirsson, H. Jonsson                     : NEB implementation
   FAccTs GmbH                                   : IRC, NEB, NEB-TS, DLPNO-Multilevel, CI-OPT
                                                   MM, QMMM, 2- and 3-layer-ONIOM, Crystal-QMMM,
                                                   LR-CPCM, SF, NACMEs, symmetry and pop. for TD-DFT,
                                                   nearIR, NL-DFT gradient (VV10), updates on ESD,
                                                   ML-optimized integration grids
   S Lehtola, MJT Oliveira, MAL Marques          : LibXC Library
   Liviu Ungur et al                             : ANISO software


 Your calculation uses the libint2 library for the computation of 2-el integrals
 For citations please refer to: http://libint.valeyev.net

 Your ORCA version has been built with support for libXC version: 5.1.0
 For citations please refer to: https://tddft.org/programs/libxc/

 This ORCA versions uses:
   CBLAS   interface :  Fast vector & matrix operations
   LAPACKE interface :  Fast linear algebra routines
   SCALAPACK package :  Parallel linear algebra routines
   Shared memory     :  Shared parallel matrices
   BLAS/LAPACK       :  OpenBLAS 0.3.15  USE64BITINT DYNAMIC_ARCH NO_AFFINITY SkylakeX SINGLE_THREADED
        Core in use  :  SkylakeX
   Copyright (c) 2011-2014, The OpenBLAS Project




***************************************
The coordinates will be read from file: reactants.xyz
***************************************


Your calculation utilizes the SMD solvation module
Please cite in your paper:
A.V. Marenich, C.J. Cramer, D.G. Truhlar J. Phys. Chem. B, 113, (2009), 6378 

XCFun DFT library Copyright 2009-2010 Ulf Ekstrom and contributors.
See http://admol.org/xcfun for more information.
This is free software; see the source code for copying conditions.
There is ABSOLUTELY NO WARRANTY; not even for MERCHANTABILITY or FITNESS FOR A PARTICULAR PURPOSE.
For details see the documentation.
Scientific users of this library should cite U. Ekstrom, L. Visscher, R. Bast, A. J. Thorvaldsen and K. Ruud;
J.Chem.Theor.Comp. 2010, DOI: 10.1021/ct100117s
XCFun Version 0.99 

================================================================================

----- Orbital basis set information -----
Your calculation utilizes the basis: 6-311++G**
   H, Li - Ne  : R. Krishnan, J. S. Binkley, R. Seeger and J. A. Pople, J. Chem. Phys. 72, 650 (1980).
   Na - Ar     : A. D. McLean and G. S. Chandler J. Chem. Phys. 72, 5639, (1980).
   K  - Ca     : J.-P. Blaudeau, M. P. McGrath, L. A. Curtiss and L. Radom, J. Chem. Phys. 107, 5016 (1997).
   Ga - Kr     : L. A. Curtiss, M. P. McGrath, J.-P. Blandeau, N. E. Davis, R. C. Binning and L. Radom, J. Chem. Phys. 103, 6104 (1995).
   Pol./Diff.
   H, Li - Cl  : T. Clark, J. Chandrasekhar and P. v. R. Schleyer, J. Comp. Chem. 4, 294 (1983).
   H - Ne      : M. J. Frisch, J. A. Pople and J. S. Binkley, J. Chem. Phys. 80, 3265 (1984).

----- AuxJ basis set information -----
Your calculation utilizes the auxiliary basis: def2/J
   F. Weigend, Phys. Chem. Chem. Phys. 8, 1057 (2006).

================================================================================
                                        WARNINGS
                       Please study these warnings very carefully!
================================================================================


WARNING: Geometry Optimization
  ===> : Switching off AutoStart
         For restart on a previous wavefunction, please use MOREAD

INFO   : the flag for use of the SHARK integral package has been found!

================================================================================
                                       INPUT FILE
================================================================================
NAME = structure_opt.inp
|  1> !wb97x 6-311++G** OPT CPCM(WATER)
|  2> %maxcore  3500
|  3> %pal
|  4> nprocs 24
|  5> end
|  6> %cpcm
|  7> smd true
|  8> SMDsolvent "water"
|  9> end
| 10> %geom
| 11> ConstrainFragments {1} end
| 12> ConstrainFragments {4} end
| 13> ConnectFragments
| 14> { 1 2 C 5 7 }
| 15> { 1 2 C 0 9 }
| 16> { 2 3 C 13 5 }
| 17> { 3 4 C 13 17 }
| 18> end
| 19> end
| 20> * XYZfile -1 1 reactants.xyz
| 21> %geom
| 22> Fragments
| 23> 1 {0:5} end
| 24> 2 {6:12} end
| 25> 3 {13:16} end
| 26> 4 {17} end
| 27> end
| 28> end
| 29> 
| 30>                          ****END OF INPUT****
================================================================================

                       *****************************
                       * Geometry Optimization Run *
                       *****************************

Geometry optimization settings:
Update method            Update   .... BFGS
Choice of coordinates    CoordSys .... Z-matrix Internals
Initial Hessian          InHess   .... Almoef's Model

Convergence Tolerances:
Energy Change            TolE     ....  5.0000e-06 Eh
Max. Gradient            TolMAXG  ....  3.0000e-04 Eh/bohr
RMS Gradient             TolRMSG  ....  1.0000e-04 Eh/bohr
Max. Displacement        TolMAXD  ....  4.0000e-03 bohr
RMS Displacement         TolRMSD  ....  2.0000e-03 bohr
Strict Convergence                ....  False
------------------------------------------------------------------------------
                        ORCA OPTIMIZATION COORDINATE SETUP
------------------------------------------------------------------------------

The optimization will be done in new redundant internal coordinates
Making redundant internal coordinates   ...  (new redundants) done
Evaluating the initial hessian          ...  (Almloef) done
Evaluating the coordinates              ...  done
Calculating the B-matrix                .... done
Calculating the G-matrix                .... done
Diagonalizing the G-matrix              .... done
Imposing constraints:
 Iter   0:  RMS(Cart)=    0.0000000000 RMS(Int)=    0.0000000000
CONVERGED
Small eigenvalue found = 1.114e-02
Small eigenvalue found = 2.891e-02
The first mode is                       ....   70
The number of degrees of freedom        ....   48
Storing new coordinates                 .... done

    -----------------------------------------------------------------
                    Redundant Internal Coordinates


    -----------------------------------------------------------------
         Definition                    Initial Value    Approx d2E/dq
    -----------------------------------------------------------------
      1. B(N   1,C   0)                  1.3611         0.622347   
      2. B(C   2,N   1)                  1.3582         0.628875   
      3. B(C   3,C   2)                  1.3949         0.613658   
      4. B(C   4,C   3)                  1.3934         0.616971   
      5. B(C   5,C   0)                  1.4122         0.575774   
      6. B(C   5,C   4)                  1.4061         0.588917   
      7. B(O   7,C   5)                  2.3435         0.016853 C 
      8. B(O   7,N   6)                  1.2480         0.844503   
      9. B(O   8,N   6)                  1.3769         0.525866   
     10. B(F   9,C   0)                  1.3500         0.602260 C 
     11. B(F   9,N   6)                  2.8678         0.002044   
     12. B(F   9,O   7)                  2.5821         0.005837   
     13. B(H  11,H  10)                  2.4818         0.000415   
     14. B(H  12,O   8)                  2.5152         0.001717   
     15. B(H  12,H  11)                  2.4663         0.000439   
     16. B(H  12,N   6)                  2.7029         0.000861   
     17. B(C  13,H  12)                  4.7680         0.000000 C 
     18. B(H  14,C  13)                  1.0939         0.355015   
     19. B(H  15,C  13)                  1.0929         0.356329   
     20. B(H  16,C  13)                  1.0934         0.355636   
     21. B(S  17,C  13)                  1.8031         0.369311 C 
     22. A(N   1,C   0,C   5)          120.1571         0.425830   
     23. A(C   5,C   0,F   9)          121.1725         0.421471 C 
     24. A(N   1,C   0,F   9)          118.6704         0.424592 C 
     25. A(C   0,N   1,C   2)          121.9524         0.429796   
     26. A(N   1,C   2,C   3)          120.0262         0.431531   
     27. A(C   2,C   3,C   4)          119.3498         0.432882   
     28. A(C   3,C   4,C   5)          120.4718         0.429694   
     29. A(C   4,C   5,O   7)          147.4261         0.238582 C 
     30. A(C   0,C   5,O   7)           94.5313         0.237820 C 
     31. A(C   0,C   5,C   4)          118.0425         0.424407   
     32. A(O   8,N   6,H  12)           67.2752         0.152046   
     33. A(O   7,N   6,O   8)          118.5014         0.433822   
     34. A(O   7,N   6,F   9)           64.2090         0.186619   
     35. A(O   7,N   6,H  12)          174.2234         0.159181   
     36. A(F   9,N   6,H  12)          110.0144         0.106848   
     37. A(N   6,O   7,F   9)           89.9947         0.212791   
     38. A(C   5,O   7,N   6)           31.7456         0.248611 C 
     39. A(C   5,O   7,F   9)           58.2491         0.140475 C 
     40. A(N   6,O   8,H  12)           82.3972         0.162696   
     41. A(C   0,F   9,O   7)           86.0471         0.203997 C 
     42. A(N   6,F   9,O   7)           25.7962         0.120482   
     43. A(C   0,F   9,N   6)           60.2509         0.179684 C 
     44. A(H  10,H  11,H  12)          119.7063         0.095112   
     45. A(H  11,H  12,C  13)           93.1171         0.090661 C 
     46. A(N   6,H  12,O   8)           30.3275         0.103999   
     47. A(N   6,H  12,H  11)          126.7169         0.097913   
     48. A(O   8,H  12,H  11)          157.0445         0.099419   
     49. A(N   6,H  12,C  13)          118.2475         0.091391 C 
     50. A(O   8,H  12,C  13)          101.2968         0.091794 C 
     51. A(H  14,C  13,H  16)          108.9237         0.289623   
     52. A(H  15,C  13,H  16)          109.0194         0.289791   
     53. A(H  12,C  13,S  17)           26.1882         0.100799   
     54. A(H  16,C  13,S  17)          109.9425         0.339477 C 
     55. A(H  12,C  13,H  15)           94.7603         0.098459 C 
     56. A(H  12,C  13,H  16)           96.6595         0.098455 C 
     57. A(H  14,C  13,S  17)          109.9516         0.339378 C 
     58. A(H  15,C  13,S  17)          109.9944         0.339588 C 
     59. A(H  12,C  13,H  14)          136.1033         0.098451 C 
     60. A(H  14,C  13,H  15)          108.9823         0.289712   
     61. D(C   2,N   1,C   0,C   5)     -0.1041         0.028432   
     62. D(C   2,N   1,C   0,F   9)    179.9112         0.028432 C 
     63. D(C   3,C   2,N   1,C   0)      0.1066         0.025783   
     64. D(C   4,C   3,C   2,N   1)     -0.0956         0.020965   
     65. D(C   5,C   4,C   3,C   2)      0.0854         0.021202   
     66. D(C   4,C   5,C   0,N   1)      0.0896         0.022761   
     67. D(C   4,C   5,C   0,F   9)   -179.9260         0.022761 C 
     68. D(C   0,C   5,C   4,C   3)     -0.0818         0.021656   
     69. D(O   7,C   5,C   4,C   3)   -179.9036         0.021656 C 
     70. D(O   7,C   5,C   0,N   1)    179.9933         0.022761 C 
     71. D(O   7,C   5,C   0,F   9)     -0.0223         0.022761 C 
     72. D(N   6,O   7,C   5,C   0)   -179.9521         0.001517 C 
     73. D(N   6,O   7,C   5,C   4)     -0.1099         0.001517 C 
     74. D(F   9,O   7,C   5,C   0)      0.0117         0.001517 C 
     75. D(F   9,O   7,C   5,C   4)    179.8539         0.001517 C 
     76. D(F   9,O   7,N   6,H  12)      0.1568         0.079747   
     77. D(F   9,O   7,N   6,O   8)    179.9932         0.079747   
     78. D(C   5,O   7,N   6,H  12)      0.1876         0.079747 C 
     79. D(C   5,O   7,N   6,O   8)   -179.9761         0.079747 C 
     80. D(C   5,O   7,N   6,F   9)      0.0308         0.079747 C 
     81. D(H  12,O   8,N   6,O   7)   -179.9821         0.025649   
     82. D(C   0,F   9,O   7,C   5)     -0.0123         0.001503 C 
     83. D(O   7,F   9,C   0,N   1)   -179.9952         0.032536 C 
     84. D(N   6,F   9,O   7,C   5)     -0.0190         0.001503 C 
     85. D(O   7,F   9,C   0,C   5)      0.0202         0.032536 C 
     86. D(O   7,F   9,N   6,H  12)   -179.9832         0.001500   
     87. D(N   6,F   9,C   0,C   5)      0.0236         0.032536 C 
     88. D(C   0,F   9,N   6,O   7)   -179.9922         0.001500 C 
     89. D(C   0,F   9,N   6,H  12)      0.0246         0.001500 C 
     90. D(N   6,F   9,C   0,N   1)   -179.9918         0.032536 C 
     91. D(C   0,F   9,O   7,N   6)      0.0068         0.001503 C 
     92. D(O   7,F   9,O   8,H  12)   -179.9897         0.001500   
     93. D(C   0,F   9,O   8,H  12)      0.0232         0.001500 C 
     94. D(O   8,H  12,N   6,O   7)    179.8441         0.001501   
     95. D(O   8,H  12,N   6,F   9)    179.9943         0.001501   
     96. D(H  11,H  12,N   6,O   7)     -0.1748         0.001501   
     97. D(C  13,H  12,O   8,N   6)   -127.9040         0.001502 C 
     98. D(H  11,H  12,N   6,F   9)     -0.0245         0.001501   
     99. D(C  13,H  12,N   6,O   7)   -118.7112         0.001501 C 
    100. D(C  13,H  12,N   6,O   8)     61.4447         0.001501 C 
    101. D(C  13,H  12,N   6,F   9)   -118.5609         0.001501 C 
    102. D(H  11,H  12,N   6,O   8)    179.9811         0.001501   
    103. D(H  11,H  12,O   8,N   6)     -0.0388         0.001502   
    104. D(N   6,H  12,H  11,H  10)      0.0466         0.001502   
    105. D(O   8,H  12,H  11,H  10)      0.0710         0.001502   
    106. D(C  13,H  12,H  11,H  10)    129.2380         0.001502 C 
    107. D(H  14,C  13,H  12,N   6)     35.2193         0.001500 C 
    108. D(H  14,C  13,H  12,O   8)     62.1095         0.001500 C 
    109. D(H  14,C  13,H  12,H  11)    -99.9302         0.001500 C 
    110. D(H  16,C  13,H  12,H  11)     26.3870         0.001500 C 
    111. D(H  15,C  13,H  12,O   8)    -61.7597         0.001500 C 
    112. D(H  15,C  13,H  12,H  11)    136.2006         0.001500 C 
    113. D(H  16,C  13,H  12,N   6)    161.5365         0.001500 C 
    114. D(H  15,C  13,H  12,N   6)    -88.6499         0.001500 C 
    115. D(H  16,C  13,H  12,O   8)   -171.5733         0.001500 C 
    116. D(S  17,C  13,H  12,N   6)     38.8054         0.001500   
    117. D(S  17,C  13,H  12,O   8)     65.6956         0.001500   
    118. D(S  17,C  13,H  12,H  11)    -96.3441         0.001500   
    -----------------------------------------------------------------

Number of atoms                         .... 18
Number of degrees of freedom            .... 118

         *************************************************************
         *                GEOMETRY OPTIMIZATION CYCLE   1            *
         *************************************************************
---------------------------------
CARTESIAN COORDINATES (ANGSTROEM)
---------------------------------
  C      0.000000    0.000000    1.820000
  N      1.178000   -0.196000    2.473000
  C      1.255000   -0.207000    3.829000
  C      0.105000   -0.016000    4.595000
  C     -1.116000    0.187000    3.955000
  C     -1.192000    0.198000    2.551000
  N     -2.456000    0.409000    1.893000
  O     -2.541000    0.423000    0.648000
  O     -3.602000    0.600000    2.632000
  F      0.000000    0.000000    0.470000
  H      2.209000   -0.366000    4.313000
  H      0.163000   -0.026000    5.676000
  H     -2.005000    0.335000    4.557000
  C     -4.186000   -3.041000    7.122000
  H     -4.477000   -4.084000    6.967000
  H     -5.083000   -2.446000    7.311000
  H     -3.529000   -2.982000    7.994000
  S     -3.329000   -2.418000    5.663000

----------------------------
CARTESIAN COORDINATES (A.U.)
----------------------------
  NO LB      ZA    FRAG     MASS         X           Y           Z
   0 C     6.0000    1    12.011    0.000000    0.000000    3.439302
   1 N     7.0000    1    14.007    2.226097   -0.370386    4.673293
   2 C     6.0000    1    12.011    2.371606   -0.391173    7.235761
   3 C     6.0000    1    12.011    0.198421   -0.030236    8.683292
   4 C     6.0000    1    12.011   -2.108934    0.353379    7.473867
   5 C     6.0000    1    12.011   -2.252554    0.374166    4.820691
   6 N     7.0000    2    14.007   -4.641167    0.772898    3.577252
   7 O     8.0000    2    15.999   -4.801794    0.799354    1.224543
   8 O     8.0000    2    15.999   -6.806794    1.133836    4.973759
   9 F     9.0000    2    18.998    0.000000    0.000000    0.888171
  10 H     1.0000    2     1.008    4.174405   -0.691640    8.150389
  11 H     1.0000    2     1.008    0.308025   -0.049133   10.726086
  12 H     1.0000    2     1.008   -3.788901    0.633058    8.611482
  13 C     6.0000    3    12.011   -7.910394   -5.746657   13.458630
  14 H     1.0000    3     1.008   -8.460304   -7.717642   13.165722
  15 H     1.0000    3     1.008   -9.605478   -4.622270   13.815788
  16 H     1.0000    3     1.008   -6.668844   -5.635163   15.106471
  17 S    16.0000    4    32.060   -6.290898   -4.569358   10.701519

----------------------------------------------
CARTESIAN COORDINATES OF FRAGMENTS (ANGSTROEM)
----------------------------------------------

 FRAGMENT 1 
  C     0.000000    0.000000    1.820000
  N     1.178000   -0.196000    2.473000
  C     1.255000   -0.207000    3.829000
  C     0.105000   -0.016000    4.595000
  C    -1.116000    0.187000    3.955000
  C    -1.192000    0.198000    2.551000

 FRAGMENT 2 
  N    -2.456000    0.409000    1.893000
  O    -2.541000    0.423000    0.648000
  O    -3.602000    0.600000    2.632000
  F     0.000000    0.000000    0.470000
  H     2.209000   -0.366000    4.313000
  H     0.163000   -0.026000    5.676000
  H    -2.005000    0.335000    4.557000

 FRAGMENT 3 
  C    -4.186000   -3.041000    7.122000
  H    -4.477000   -4.084000    6.967000
  H    -5.083000   -2.446000    7.311000
  H    -3.529000   -2.982000    7.994000

 FRAGMENT 4 
  S    -3.329000   -2.418000    5.663000

--------------------------------
INTERNAL COORDINATES (ANGSTROEM)
--------------------------------
 C      0   0   0     0.000000000000     0.00000000     0.00000000
 N      1   0   0     1.361069065110     0.00000000     0.00000000
 C      2   1   0     1.358228993948   121.95243626     0.00000000
 C      3   2   1     1.394896770374   120.02620694     0.10655554
 C      4   3   2     1.393431017309   119.34983770   359.90435571
 C      5   4   3     1.406098502951   120.47178172     0.08537773
 N      6   5   4     1.440548853736   120.30882193   180.03842131
 O      7   6   5     1.247976762604   121.13704526   179.93147861
 O      7   6   5     1.376923382037   120.36156660   359.90709941
 F      1   2   3     1.350000000000   118.67037638   179.91115691
 H      3   2   1     1.081504969938   119.86701156   179.98746005
 H      4   3   2     1.082601034546   120.19197482   179.89186186
 H      5   4   3     1.083803026384   118.91636700   180.02085854
 C     13   5   4     4.767951551767   125.26332711   288.65180395
 H     14  13   5     1.093871564673   136.10333496   315.92442796
 H     14  13   5     1.092865499501    94.76027028   192.05521856
 H     14  13   5     1.093395628307    96.65954911    82.24161296
 S     14  13   5     1.803124787695    26.18822493   319.51049277

---------------------------
INTERNAL COORDINATES (A.U.)
---------------------------
 C      0   0   0     0.000000000000     0.00000000     0.00000000
 N      1   0   0     2.572047782411     0.00000000     0.00000000
 C      2   1   0     2.566680825712   121.95243626     0.00000000
 C      3   2   1     2.635972881098   120.02620694     0.10655554
 C      4   3   2     2.633203009226   119.34983770   359.90435571
 C      5   4   3     2.657141087893   120.47178172     0.08537773
 N      6   5   4     2.722242816095   120.30882193   180.03842131
 O      7   6   5     2.358334302820   121.13704526   179.93147861
 O      7   6   5     2.602008099442   120.36156660   359.90709941
 F      1   2   3     2.551130280794   118.67037638   179.91115691
 H      3   2   1     2.043748205657   119.86701156   179.98746005
 H      4   3   2     2.045819467592   120.19197482   179.89186186
 H      5   4   3     2.048090902982   118.91636700   180.02085854
 C     13   5   4     9.010122652645   125.26332711   288.65180395
 H     14  13   5     2.067117682916   136.10333496   315.92442796
 H     14  13   5     2.065216495268    94.76027028   192.05521856
 H     14  13   5     2.066218293526    96.65954911    82.24161296
 S     14  13   5     3.407412034028    26.18822493   319.51049277

---------------------
BASIS SET INFORMATION
---------------------
There are 6 groups of distinct atoms

 Group   1 Type C   : 12s6p1d contracted to 5s4p1d pattern {63111/3111/1}
 Group   2 Type N   : 12s6p1d contracted to 5s4p1d pattern {63111/3111/1}
 Group   3 Type O   : 12s6p1d contracted to 5s4p1d pattern {63111/3111/1}
 Group   4 Type F   : 12s6p1d contracted to 5s4p1d pattern {63111/3111/1}
 Group   5 Type H   : 6s1p contracted to 4s1p pattern {3111/1}
 Group   6 Type S   : 14s10p1d contracted to 7s6p1d pattern {6311111/421111/1}

Atom   0C    basis set group =>   1
Atom   1N    basis set group =>   2
Atom   2C    basis set group =>   1
Atom   3C    basis set group =>   1
Atom   4C    basis set group =>   1
Atom   5C    basis set group =>   1
Atom   6N    basis set group =>   2
Atom   7O    basis set group =>   3
Atom   8O    basis set group =>   3
Atom   9F    basis set group =>   4
Atom  10H    basis set group =>   5
Atom  11H    basis set group =>   5
Atom  12H    basis set group =>   5
Atom  13C    basis set group =>   1
Atom  14H    basis set group =>   5
Atom  15H    basis set group =>   5
Atom  16H    basis set group =>   5
Atom  17S    basis set group =>   6
---------------------------------
AUXILIARY/J BASIS SET INFORMATION
---------------------------------
There are 6 groups of distinct atoms

 Group   1 Type C   : 12s5p4d2f1g contracted to 6s4p3d1f1g pattern {711111/2111/211/2/1}
 Group   2 Type N   : 12s5p4d2f1g contracted to 6s4p3d1f1g pattern {711111/2111/211/2/1}
 Group   3 Type O   : 12s5p4d2f1g contracted to 6s4p3d1f1g pattern {711111/2111/211/2/1}
 Group   4 Type F   : 12s5p4d2f1g contracted to 6s4p3d1f1g pattern {711111/2111/211/2/1}
 Group   5 Type H   : 5s2p1d contracted to 3s1p1d pattern {311/2/1}
 Group   6 Type S   : 14s5p5d2f1g contracted to 8s4p3d1f1g pattern {71111111/2111/311/2/1}

Atom   0C    basis set group =>   1
Atom   1N    basis set group =>   2
Atom   2C    basis set group =>   1
Atom   3C    basis set group =>   1
Atom   4C    basis set group =>   1
Atom   5C    basis set group =>   1
Atom   6N    basis set group =>   2
Atom   7O    basis set group =>   3
Atom   8O    basis set group =>   3
Atom   9F    basis set group =>   4
Atom  10H    basis set group =>   5
Atom  11H    basis set group =>   5
Atom  12H    basis set group =>   5
Atom  13C    basis set group =>   1
Atom  14H    basis set group =>   5
Atom  15H    basis set group =>   5
Atom  16H    basis set group =>   5
Atom  17S    basis set group =>   6


           ************************************************************
           *        Program running with 24 parallel MPI-processes    *
           *              working on a common directory               *
           ************************************************************
------------------------------------------------------------------------------
                           ORCA GTO INTEGRAL CALCULATION
                           -- RI-GTO INTEGRALS CHOSEN --
------------------------------------------------------------------------------
------------------------------------------------------------------------------
                   ___                                                        
                  /   \      - P O W E R E D   B Y -                         
                 /     \                                                     
                 |  |  |   _    _      __       _____    __    __             
                 |  |  |  | |  | |    /  \     |  _  \  |  |  /  |          
                  \  \/   | |  | |   /    \    | | | |  |  | /  /          
                 / \  \   | |__| |  /  /\  \   | |_| |  |  |/  /          
                |  |  |   |  __  | /  /__\  \  |    /   |      \           
                |  |  |   | |  | | |   __   |  |    \   |  |\   \          
                \     /   | |  | | |  |  |  |  | |\  \  |  | \   \       
                 \___/    |_|  |_| |__|  |__|  |_| \__\ |__|  \__/        
                                                                              
                      - O R C A' S   B I G   F R I E N D -                    
                                      &                                       
                       - I N T E G R A L  F E E D E R -                       
                                                                              
 v1 FN, 2020, v2 2021                                                         
------------------------------------------------------------------------------


Reading SHARK input file structure_opt.SHARKINP.tmp ... ok
----------------------
SHARK INTEGRAL PACKAGE
----------------------

Number of atoms                             ...     18
Number of basis functions                   ...    314
Number of shells                            ...    154
Maximum angular momentum                    ...      2
Integral batch strategy                     ... SHARK/LIBINT Hybrid
RI-J (if used) integral strategy            ... SPLIT-RIJ (Revised 2003 algorithm where possible)
Printlevel                                  ...      1
Contraction scheme used                     ... SEGMENTED contraction
Coulomb Range Separation                    ... NOT USED
Exchange Range Separation                   ... Long Range
   Mu parameter                             ...  0.300000
   Scaling (regular/separated)              ...  0.157706  0.842294
Finite Nucleus Model                        ... NOT USED
Auxiliary Coulomb fitting basis             ... AVAILABLE
   # of basis functions in Aux-J            ...    656
   # of shells in Aux-J                     ...    212
   Maximum angular momentum in Aux-J        ...      4
Auxiliary J/K fitting basis                 ... NOT available
Auxiliary Correlation fitting basis         ... NOT available
Auxiliary 'external' fitting basis          ... NOT available
Integral threshold                          ...     2.500000e-11
Primitive cut-off                           ...     2.500000e-12
Primitive pair pre-selection threshold      ...     2.500000e-12

Calculating pre-screening integrals         ... done (  0.0 sec) Dimension = 154
Organizing shell pair data                  ... done (  0.1 sec)
Shell pair information
Total number of shell pairs                 ...     11935
Shell pairs after pre-screening             ...      9604
Total number of primitive shell pairs       ...     38500
Primitive shell pairs kept                  ...     21843
          la=0 lb=0:   2968 shell pairs
          la=1 lb=0:   3940 shell pairs
          la=1 lb=1:   1349 shell pairs
          la=2 lb=0:    767 shell pairs
          la=2 lb=1:    523 shell pairs
          la=2 lb=2:     57 shell pairs

Calculating one electron integrals          ... done (  0.0 sec)
Calculating RI/J V-Matrix + Cholesky decomp.... done (  0.2 sec)
Calculating Nuclear repulsion               ... done (  0.0 sec) ENN=    722.639105318199 Eh

SHARK setup successfully completed in   0.7 seconds

Maximum memory used throughout the entire GTOINT-calculation: 18.2 MB


           ************************************************************
           *        Program running with 24 parallel MPI-processes    *
           *              working on a common directory               *
           ************************************************************
-------------------------------------------------------------------------------
                                 ORCA SCF
-------------------------------------------------------------------------------

------------
SCF SETTINGS
------------
Hamiltonian:
 Density Functional     Method          .... DFT(GTOs)
 Exchange Functional    Exchange        .... WB97X
 Correlation Functional Correlation     .... WB97X
 Gradients option       PostSCFGGA      .... off
 Hybrid DFT is turned on
   Fraction HF Exchange ScalHFX         ....  0.157706
   Scaling of DF-GGA-X  ScalDFX         ....  0.000000
   Scaling of DF-GGA-C  ScalDFC         ....  1.000000
   Scaling of DF-LDA-C  ScalLDAC        ....  1.000000
   Perturbative correction              ....  0.000000
   Density functional embedding theory  .... OFF
 Long-range corrected/Screened/Range-Separated Hybrid DFT is turned on
   Amount of maximum screened exact exchange              ....  0.842294
   Range separation parameter mu (erf(mu*r12)/r12)        ....  0.300000
 RI-approximation to the Coulomb term is turned on
   Number of AuxJ basis functions       .... 656
   RIJ-COSX (HFX calculated with COS-X)).... on


General Settings:
 Integral files         IntName         .... structure_opt
 Hartree-Fock type      HFTyp           .... RHF
 Total Charge           Charge          ....   -1
 Multiplicity           Mult            ....    1
 Number of Electrons    NEL             ....   98
 Basis Dimension        Dim             ....  314
 Nuclear Repulsion      ENuc            ....    722.6391053182 Eh

Convergence Acceleration:
 DIIS                   CNVDIIS         .... on
   Start iteration      DIISMaxIt       ....    12
   Startup error        DIISStart       ....  0.200000
   # of expansion vecs  DIISMaxEq       ....     5
   Bias factor          DIISBfac        ....   1.050
   Max. coefficient     DIISMaxC        ....  10.000
 Trust-Rad. Augm. Hess. CNVTRAH         .... auto
   Auto Start mean grad. ratio tolernc. ....  1.125000
   Auto Start start iteration           ....    20
   Auto Start num. interpolation iter.  ....    10
   Max. Number of Micro iterations      ....    16
   Max. Number of Macro iterations      .... Maxiter - #DIIS iter
   Number of Davidson start vectors     ....     2
   Converg. threshold I  (grad. norm)   ....   1.000e-05
   Converg. threshold II (energy diff.) ....   1.000e-08
   Grad. Scal. Fac. for Micro threshold ....   0.100
   Minimum threshold for Micro iter.    ....   0.010
   NR start threshold (gradient norm)   ....   0.001
   Initial trust radius                 ....   0.400
   Minimum AH scaling param. (alpha)    ....   1.000
   Maximum AH scaling param. (alpha)    .... 1000.000
   Orbital update algorithm             .... Taylor
   White noise on init. David. guess    .... on
   Maximum white noise                  ....   0.010
   Quad. conv. algorithm                .... NR
 SOSCF                  CNVSOSCF        .... on
   Start iteration      SOSCFMaxIt      ....   150
   Startup grad/error   SOSCFStart      ....  0.003300
 Level Shifting         CNVShift        .... on
   Level shift para.    LevelShift      ....    0.2500
   Turn off err/grad.   ShiftErr        ....    0.0010
 Zerner damping         CNVZerner       .... off
 Static damping         CNVDamp         .... on
   Fraction old density DampFac         ....    0.7000
   Max. Damping (<1)    DampMax         ....    0.9800
   Min. Damping (>=0)   DampMin         ....    0.0000
   Turn off err/grad.   DampErr         ....    0.1000
 Fernandez-Rico         CNVRico         .... off

SCF Procedure:
 Maximum # iterations   MaxIter         ....   125
 SCF integral mode      SCFMode         .... Direct
   Integral package                     .... SHARK and LIBINT hybrid scheme
 Reset frequency        DirectResetFreq ....    20
 Integral Threshold     Thresh          ....  2.500e-11 Eh
 Primitive CutOff       TCut            ....  2.500e-12 Eh

Convergence Tolerance:
 Convergence Check Mode ConvCheckMode   .... Total+1el-Energy
 Convergence forced     ConvForced      .... 0
 Energy Change          TolE            ....  1.000e-08 Eh
 1-El. energy change                    ....  1.000e-05 Eh
 Orbital Gradient       TolG            ....  1.000e-05
 Orbital Rotation angle TolX            ....  1.000e-05
 DIIS Error             TolErr          ....  5.000e-07


Diagonalization of the overlap matrix:
Smallest eigenvalue                        ... 3.968e-06
Time for diagonalization                   ...    0.022 sec
Threshold for overlap eigenvalues          ... 1.000e-08
Number of eigenvalues below threshold      ... 0
Time for construction of square roots      ...    0.017 sec
Total time needed                          ...    0.041 sec

Time for model grid setup =    0.570 sec

------------------------------
INITIAL GUESS: MODEL POTENTIAL
------------------------------
Loading Hartree-Fock densities                     ... done
Calculating cut-offs                               ... done
Initializing the effective Hamiltonian             ... done
Setting up the integral package (SHARK)            ... done
Starting the Coulomb interaction                   ... done (   0.4 sec)
Reading the grid                                   ... done
Mapping shells                                     ... done
Starting the XC term evaluation                    ... done (   0.1 sec)
  promolecular density results
     # of electrons  =     96.995143987
     EX              =    -96.553751492
     EC              =     -3.328571288
     EX+EC           =    -99.882322780
Transforming the Hamiltonian                       ... done (   0.0 sec)
Diagonalizing the Hamiltonian                      ... done (   0.0 sec)
Back transforming the eigenvectors                 ... done (   0.0 sec)
Now organizing SCF variables                       ... done
                      ------------------
                      INITIAL GUESS DONE (   1.0 sec)
                      ------------------
-------------------
DFT GRID GENERATION
-------------------

General Integration Accuracy     IntAcc      ... 4.388
Radial Grid Type                 RadialGrid  ... OptM3 with GC (2021)
Angular Grid (max. ang.)         AngularGrid ... 4 (Lebedev-302)
Angular grid pruning method      GridPruning ... 4 (adaptive)
Weight generation scheme         WeightScheme... Becke
Basis function cutoff            BFCut       ... 1.0000e-11
Integration weight cutoff        WCut        ... 1.0000e-14
Angular grids for H and He will be reduced by one unit
Partially contracted basis set               ... off
Rotationally invariant grid construction     ... off

Total number of grid points                  ...    97990
Total number of batches                      ...     1541
Average number of points per batch           ...       63
Average number of grid points per atom       ...     5444
Time for grid setup =    0.695 sec

--------------------
COSX GRID GENERATION
--------------------

GRIDX 1
-------
General Integration Accuracy     IntAcc      ... 3.816
Radial Grid Type                 RadialGrid  ... OptM3 with GC (2021)
Angular Grid (max. ang.)         AngularGrid ... 1 (Lebedev-50)
Angular grid pruning method      GridPruning ... 4 (adaptive)
Weight generation scheme         WeightScheme... Becke
Basis function cutoff            BFCut       ... 1.0000e-11
Integration weight cutoff        WCut        ... 1.0000e-14
Angular grids for H and He will be reduced by one unit
Partially contracted basis set               ... on
Rotationally invariant grid construction     ... off

Total number of grid points                  ...    12240
Total number of batches                      ...      201
Average number of points per batch           ...       60
Average number of grid points per atom       ...      680
UseSFitting                                  ... on

GRIDX 2
-------
General Integration Accuracy     IntAcc      ... 4.020
Radial Grid Type                 RadialGrid  ... OptM3 with GC (2021)
Angular Grid (max. ang.)         AngularGrid ... 2 (Lebedev-110)
Angular grid pruning method      GridPruning ... 4 (adaptive)
Weight generation scheme         WeightScheme... Becke
Basis function cutoff            BFCut       ... 1.0000e-11
Integration weight cutoff        WCut        ... 1.0000e-14
Angular grids for H and He will be reduced by one unit
Partially contracted basis set               ... on
Rotationally invariant grid construction     ... off

Total number of grid points                  ...    30909
Total number of batches                      ...      493
Average number of points per batch           ...       62
Average number of grid points per atom       ...     1717
UseSFitting                                  ... on

GRIDX 3
-------
General Integration Accuracy     IntAcc      ... 4.338
Radial Grid Type                 RadialGrid  ... OptM3 with GC (2021)
Angular Grid (max. ang.)         AngularGrid ... 3 (Lebedev-194)
Angular grid pruning method      GridPruning ... 4 (adaptive)
Weight generation scheme         WeightScheme... Becke
Basis function cutoff            BFCut       ... 1.0000e-11
Integration weight cutoff        WCut        ... 1.0000e-14
Angular grids for H and He will be reduced by one unit
Partially contracted basis set               ... on
Rotationally invariant grid construction     ... off

Total number of grid points                  ...    68605
Total number of batches                      ...     1081
Average number of points per batch           ...       63
Average number of grid points per atom       ...     3811
UseSFitting                                  ... on

Time for X-Grid setup             =    1.517 sec


--------------------
CPCM SOLVATION MODEL
--------------------
CPCM parameters:
  Epsilon                                         ...      78.3550
  Refrac                                          ...       1.3328
  Rsolv                                           ...       1.3000
  Surface type                                    ... GAUSSIAN VDW
  Epsilon function type                           ...         CPCM
Solvent:                                     ... WATER
SMD-CDS solvent descriptors:
  Soln                                       ...    1.3328
  Soln25                                     ...    1.3323
  Sola                                       ...    0.0000
  Solb                                       ...    0.0000
  Solg                                       ...    0.0000
  Solc                                       ...    0.0000
  Solh                                       ...    0.0000
Radii:
 Radius for C  used is    3.4960 Bohr (=   1.8500 Ang.)
 Radius for N  used is    3.5716 Bohr (=   1.8900 Ang.)
 Radius for O  used is    2.8724 Bohr (=   1.5200 Ang.)
 Radius for F  used is    3.2692 Bohr (=   1.7300 Ang.)
 Radius for H  used is    2.2677 Bohr (=   1.2000 Ang.)
 Radius for S  used is    4.7054 Bohr (=   2.4900 Ang.)
Calculating surface                               ...        done! (  0.0s)
GEPOL surface points                              ...         1147
GEPOL Volume                                      ...    1368.4052
GEPOL Surface-area                                ...     821.2622
Calculating surface distance matrix               ...        done! (  0.0s)
Performing Cholesky decomposition & store         ...        done! (  0.1s)
Overall time for CPCM initialization              ...                 0.1s
--------------
SCF ITERATIONS
--------------
ITER       Energy         Delta-E        Max-DP      RMS-DP      [F,P]     Damp
               ***  Starting incremental Fock matrix formation  ***
  0   -989.8687759214   0.000000000000 0.34712805  0.00350559  0.2373061 0.7000
  1   -990.0308527087  -0.162076787374 0.33718466  0.00314979  0.1141360 0.7000
                               ***Turning on DIIS***
  2   -990.1032042537  -0.072351544925 2.01893487  0.01232516  0.0570009 0.0000
  3   -990.2270453244  -0.123841070784 1.01138532  0.00533971  0.0549477 0.0000
  4   -990.2461754308  -0.019130106384 0.41097725  0.00227686  0.0128381 0.0000
  5   -990.2473360733  -0.001160642455 0.21048809  0.00119855  0.0061564 0.0000
                      *** Initiating the SOSCF procedure ***
                           *** Shutting down DIIS ***
                      *** Re-Reading the Fockian *** 
                      *** Removing any level shift *** 
ITER      Energy       Delta-E        Grad      Rot      Max-DP    RMS-DP
  6   -990.24755934  -0.0002232695  0.001277  0.001277  0.080224  0.000492
               *** Restarting incremental Fock matrix formation ***
  7   -990.24762686  -0.0000675215  0.000870  0.002141  0.022047  0.000277
  8   -990.24766299  -0.0000361303  0.000313  0.002237  0.028085  0.000290
  9   -990.24766946  -0.0000064607  0.000646  0.000673  0.009544  0.000129
 10   -990.24767574  -0.0000062867  0.000109  0.000181  0.002801  0.000037
 11   -990.24767585  -0.0000001046  0.000095  0.000133  0.006314  0.000036
 12   -990.24767621  -0.0000003600  0.000015  0.000074  0.007025  0.000043
 13   -990.24767621  -0.0000000077  0.000006  0.000065  0.011609  0.000085
 14   -990.24767622  -0.0000000064  0.000005  0.000004  0.006391  0.000043
                  ***Gradient check signals convergence***
              ***Rediagonalizing the Fockian in SOSCF/NRSCF***

               *****************************************************
               *                     SUCCESS                       *
               *           SCF CONVERGED AFTER  15 CYCLES          *
               *****************************************************

Old exchange energy                            =    -28.432571119 Eh
New exchange energy                            =    -28.432564706 Eh
Exchange energy change after final integration =      0.000006413 Eh
Total energy after final integration           =   -990.247669806 Eh
Final COS-X integration done in                =     3.975 sec

SMD CDS free energy correction energy :                 5.83095     Kcal/mol
Total Energy after SMD CDS correction =              -990.238377602 Eh

----------------
TOTAL SCF ENERGY
----------------

Total Energy       :         -990.23837760 Eh          -26945.75615 eV

Components:
Nuclear Repulsion  :          722.63910532 Eh           19664.00975 eV
Electronic Energy  :        -1712.87748292 Eh          -46609.76590 eV
One Electron Energy:        -2806.61464341 Eh          -76371.86712 eV
Two Electron Energy:         1093.73716049 Eh           29762.10121 eV
Max COSX asymmetry :            0.00000221 Eh               0.00006 eV
CPCM Dielectric    :           -0.11796435 Eh              -3.20997 eV
SMD CDS (Gcds)     :            0.00929220 Eh               0.25285 eV

Virial components:
Potential Energy   :        -1977.47198633 Eh          -53809.74838 eV
Kinetic Energy     :          987.23360873 Eh           26863.99223 eV
Virial Ratio       :            2.00304362


DFT components:
N(Alpha)           :       48.999970550434 electrons
N(Beta)            :       48.999970550434 electrons
N(Total)           :       97.999941100868 electrons
E(XC)              :      -73.342425374894 Eh       
DFET-embed. en.    :        0.000000000000 Eh       
CPCM Solvation Model Properties:
Surface-charge          :            0.94997682
Charge-correction       :           -0.00607156 Eh              -0.16522 eV
Free-energy (cav+disp)  :            0.00929220 Eh               0.25285 eV

---------------
SCF CONVERGENCE
---------------

  Last Energy change         ...    1.6493e-09  Tolerance :   1.0000e-08
  Last MAX-Density change    ...    5.3291e-15  Tolerance :   1.0000e-07
  Last RMS-Density change    ...    5.1326e-17  Tolerance :   5.0000e-09
  Last Orbital Gradient      ...    2.0182e-06  Tolerance :   1.0000e-05
  Last Orbital Rotation      ...    2.2925e-06  Tolerance :   1.0000e-05

             **** THE GBW FILE WAS UPDATED (structure_opt.gbw) ****
             **** DENSITY structure_opt.scfp WAS UPDATED ****
             **** ENERGY FILE WAS UPDATED (structure_opt.en.tmp) ****
             **** THE GBW FILE WAS UPDATED (structure_opt.gbw) ****
             **** DENSITY structure_opt.scfp WAS UPDATED ****
----------------
ORBITAL ENERGIES
----------------

  NO   OCC          E(Eh)            E(eV) 
   0   2.0000     -88.720758     -2414.2146 
   1   2.0000     -24.792825      -674.6471 
   2   2.0000     -19.274887      -524.4963 
   3   2.0000     -19.243444      -523.6407 
   4   2.0000     -14.669116      -399.1670 
   5   2.0000     -14.434563      -392.7844 
   6   2.0000     -10.436825      -284.0005 
   7   2.0000     -10.362942      -281.9900 
   8   2.0000     -10.337172      -281.2887 
   9   2.0000     -10.319458      -280.8067 
  10   2.0000     -10.289191      -279.9831 
  11   2.0000     -10.236102      -278.5385 
  12   2.0000      -7.916559      -215.4205 
  13   2.0000      -5.879803      -159.9976 
  14   2.0000      -5.872290      -159.7931 
  15   2.0000      -5.872264      -159.7924 
  16   2.0000      -1.395871       -37.9836 
  17   2.0000      -1.347564       -36.6691 
  18   2.0000      -1.150842       -31.3160 
  19   2.0000      -1.108302       -30.1584 
  20   2.0000      -1.007379       -27.4122 
  21   2.0000      -0.942154       -25.6373 
  22   2.0000      -0.873076       -23.7576 
  23   2.0000      -0.836433       -22.7605 
  24   2.0000      -0.795515       -21.6471 
  25   2.0000      -0.768291       -20.9063 
  26   2.0000      -0.705226       -19.1902 
  27   2.0000      -0.685802       -18.6616 
  28   2.0000      -0.668829       -18.1998 
  29   2.0000      -0.665246       -18.1023 
  30   2.0000      -0.660979       -17.9862 
  31   2.0000      -0.632553       -17.2126 
  32   2.0000      -0.619855       -16.8671 
  33   2.0000      -0.614140       -16.7116 
  34   2.0000      -0.562914       -15.3177 
  35   2.0000      -0.535792       -14.5796 
  36   2.0000      -0.527102       -14.3432 
  37   2.0000      -0.526874       -14.3370 
  38   2.0000      -0.494609       -13.4590 
  39   2.0000      -0.494294       -13.4504 
  40   2.0000      -0.455458       -12.3937 
  41   2.0000      -0.432191       -11.7605 
  42   2.0000      -0.421077       -11.4581 
  43   2.0000      -0.415854       -11.3160 
  44   2.0000      -0.407303       -11.0833 
  45   2.0000      -0.391199       -10.6451 
  46   2.0000      -0.382921       -10.4198 
  47   2.0000      -0.259229        -7.0540 
  48   2.0000      -0.259012        -7.0481 
  49   0.0000      -0.064025        -1.7422 
  50   0.0000       0.023601         0.6422 
  51   0.0000       0.051782         1.4091 
  52   0.0000       0.056102         1.5266 
  53   0.0000       0.063094         1.7169 
  54   0.0000       0.073895         2.0108 
  55   0.0000       0.077495         2.1087 
  56   0.0000       0.086855         2.3634 
  57   0.0000       0.095574         2.6007 
  58   0.0000       0.103333         2.8118 
  59   0.0000       0.109593         2.9822 
  60   0.0000       0.115421         3.1408 
  61   0.0000       0.121540         3.3073 
  62   0.0000       0.127094         3.4584 
  63   0.0000       0.135740         3.6937 
  64   0.0000       0.142448         3.8762 
  65   0.0000       0.154288         4.1984 
  66   0.0000       0.156820         4.2673 
  67   0.0000       0.161062         4.3827 
  68   0.0000       0.166884         4.5411 
  69   0.0000       0.168795         4.5932 
  70   0.0000       0.175451         4.7743 
  71   0.0000       0.178067         4.8455 
  72   0.0000       0.181973         4.9517 
  73   0.0000       0.183130         4.9832 
  74   0.0000       0.187884         5.1126 
  75   0.0000       0.195014         5.3066 
  76   0.0000       0.200368         5.4523 
  77   0.0000       0.202644         5.5142 
  78   0.0000       0.209309         5.6956 
  79   0.0000       0.212667         5.7870 
  80   0.0000       0.219772         5.9803 
  81   0.0000       0.227215         6.1828 
  82   0.0000       0.231745         6.3061 
  83   0.0000       0.237589         6.4651 
  84   0.0000       0.243022         6.6130 
  85   0.0000       0.252469         6.8700 
  86   0.0000       0.258485         7.0337 
  87   0.0000       0.263659         7.1745 
  88   0.0000       0.270506         7.3608 
  89   0.0000       0.272849         7.4246 
  90   0.0000       0.277383         7.5480 
  91   0.0000       0.282138         7.6774 
  92   0.0000       0.283262         7.7080 
  93   0.0000       0.285729         7.7751 
  94   0.0000       0.295768         8.0482 
  95   0.0000       0.298888         8.1331 
  96   0.0000       0.308718         8.4006 
  97   0.0000       0.320555         8.7228 
  98   0.0000       0.321644         8.7524 
  99   0.0000       0.334365         9.0985 
 100   0.0000       0.337688         9.1890 
 101   0.0000       0.346240         9.4217 
 102   0.0000       0.354184         9.6378 
 103   0.0000       0.358269         9.7490 
 104   0.0000       0.364506         9.9187 
 105   0.0000       0.365538         9.9468 
 106   0.0000       0.375171        10.2089 
 107   0.0000       0.385961        10.5025 
 108   0.0000       0.397367        10.8129 
 109   0.0000       0.404974        11.0199 
 110   0.0000       0.407228        11.0812 
 111   0.0000       0.415483        11.3059 
 112   0.0000       0.420953        11.4547 
 113   0.0000       0.432163        11.7598 
 114   0.0000       0.440585        11.9889 
 115   0.0000       0.453121        12.3301 
 116   0.0000       0.467459        12.7202 
 117   0.0000       0.480686        13.0801 
 118   0.0000       0.484746        13.1906 
 119   0.0000       0.494069        13.4443 
 120   0.0000       0.498182        13.5562 
 121   0.0000       0.506569        13.7844 
 122   0.0000       0.522674        14.2227 
 123   0.0000       0.534535        14.5454 
 124   0.0000       0.538333        14.6488 
 125   0.0000       0.555561        15.1176 
 126   0.0000       0.587845        15.9961 
 127   0.0000       0.615798        16.7567 
 128   0.0000       0.623289        16.9606 
 129   0.0000       0.642665        17.4878 
 130   0.0000       0.649395        17.6709 
 131   0.0000       0.662309        18.0224 
 132   0.0000       0.669124        18.2078 
 133   0.0000       0.675379        18.3780 
 134   0.0000       0.710629        19.3372 
 135   0.0000       0.714444        19.4410 
 136   0.0000       0.726178        19.7603 
 137   0.0000       0.749345        20.3907 
 138   0.0000       0.760055        20.6821 
 139   0.0000       0.773874        21.0582 
 140   0.0000       0.776952        21.1419 
 141   0.0000       0.780874        21.2486 
 142   0.0000       0.813752        22.1433 
 143   0.0000       0.837169        22.7805 
 144   0.0000       0.853907        23.2360 
 145   0.0000       0.859408        23.3857 
 146   0.0000       0.865409        23.5490 
 147   0.0000       0.878140        23.8954 
 148   0.0000       0.906423        24.6650 
 149   0.0000       0.914784        24.8925 
 150   0.0000       0.922721        25.1085 
 151   0.0000       0.944074        25.6896 
 152   0.0000       0.954973        25.9861 
 153   0.0000       0.960907        26.1476 
 154   0.0000       0.968468        26.3533 
 155   0.0000       0.977259        26.5926 
 156   0.0000       0.986095        26.8330 
 157   0.0000       0.991937        26.9920 
 158   0.0000       1.008827        27.4516 
 159   0.0000       1.014576        27.6080 
 160   0.0000       1.033034        28.1103 
 161   0.0000       1.038148        28.2494 
 162   0.0000       1.055799        28.7297 
 163   0.0000       1.064855        28.9762 
 164   0.0000       1.075786        29.2736 
 165   0.0000       1.085095        29.5269 
 166   0.0000       1.089123        29.6365 
 167   0.0000       1.145850        31.1802 
 168   0.0000       1.152804        31.3694 
 169   0.0000       1.157779        31.5048 
 170   0.0000       1.175384        31.9838 
 171   0.0000       1.197360        32.5818 
 172   0.0000       1.210253        32.9327 
 173   0.0000       1.221864        33.2486 
 174   0.0000       1.252056        34.0702 
 175   0.0000       1.266463        34.4622 
 176   0.0000       1.279894        34.8277 
 177   0.0000       1.282804        34.9069 
 178   0.0000       1.285800        34.9884 
 179   0.0000       1.299351        35.3571 
 180   0.0000       1.301738        35.4221 
 181   0.0000       1.359282        36.9879 
 182   0.0000       1.396151        37.9912 
 183   0.0000       1.410025        38.3687 
 184   0.0000       1.474268        40.1169 
 185   0.0000       1.514026        41.1987 
 186   0.0000       1.545279        42.0492 
 187   0.0000       1.588283        43.2194 
 188   0.0000       1.589659        43.2568 
 189   0.0000       1.592691        43.3393 
 190   0.0000       1.619756        44.0758 
 191   0.0000       1.634505        44.4771 
 192   0.0000       1.658013        45.1168 
 193   0.0000       1.660193        45.1761 
 194   0.0000       1.698247        46.2117 
 195   0.0000       1.701314        46.2951 
 196   0.0000       1.706057        46.4242 
 197   0.0000       1.718532        46.7636 
 198   0.0000       1.751734        47.6671 
 199   0.0000       1.766233        48.0616 
 200   0.0000       1.789177        48.6860 
 201   0.0000       1.811243        49.2864 
 202   0.0000       1.817446        49.4552 
 203   0.0000       1.825943        49.6864 
 204   0.0000       1.847787        50.2808 
 205   0.0000       1.867298        50.8118 
 206   0.0000       1.880467        51.1701 
 207   0.0000       1.913843        52.0783 
 208   0.0000       1.937503        52.7221 
 209   0.0000       1.948220        53.0138 
 210   0.0000       1.978722        53.8438 
 211   0.0000       1.983080        53.9624 
 212   0.0000       1.996376        54.3242 
 213   0.0000       2.017148        54.8894 
 214   0.0000       2.036693        55.4212 
 215   0.0000       2.045302        55.6555 
 216   0.0000       2.077390        56.5287 
 217   0.0000       2.115634        57.5693 
 218   0.0000       2.143950        58.3399 
 219   0.0000       2.152152        58.5630 
 220   0.0000       2.169164        59.0260 
 221   0.0000       2.176964        59.2382 
 222   0.0000       2.182909        59.4000 
 223   0.0000       2.207497        60.0691 
 224   0.0000       2.296010        62.4776 
 225   0.0000       2.325921        63.2915 
 226   0.0000       2.337491        63.6064 
 227   0.0000       2.339597        63.6637 
 228   0.0000       2.402318        65.3704 
 229   0.0000       2.434121        66.2358 
 230   0.0000       2.498839        67.9969 
 231   0.0000       2.567649        69.8693 
 232   0.0000       2.597764        70.6887 
 233   0.0000       2.599561        70.7377 
 234   0.0000       2.606147        70.9169 
 235   0.0000       2.630021        71.5665 
 236   0.0000       2.665372        72.5285 
 237   0.0000       2.669340        72.6364 
 238   0.0000       2.674144        72.7672 
 239   0.0000       2.676406        72.8287 
 240   0.0000       2.695782        73.3560 
 241   0.0000       2.786626        75.8279 
 242   0.0000       2.797126        76.1137 
 243   0.0000       2.832424        77.0742 
 244   0.0000       2.853067        77.6359 
 245   0.0000       2.865764        77.9814 
 246   0.0000       2.877056        78.2887 
 247   0.0000       2.891694        78.6870 
 248   0.0000       2.902212        78.9732 
 249   0.0000       2.910495        79.1986 
 250   0.0000       2.939483        79.9874 
 251   0.0000       2.956745        80.4571 
 252   0.0000       2.963477        80.6403 
 253   0.0000       2.983829        81.1941 
 254   0.0000       2.988098        81.3103 
 255   0.0000       3.004269        81.7503 
 256   0.0000       3.024188        82.2923 
 257   0.0000       3.107102        84.5485 
 258   0.0000       3.155187        85.8570 
 259   0.0000       3.190686        86.8230 
 260   0.0000       3.269884        88.9781 
 261   0.0000       3.309411        90.0536 
 262   0.0000       3.311377        90.1071 
 263   0.0000       3.364027        91.5398 
 264   0.0000       3.370708        91.7216 
 265   0.0000       3.461897        94.2030 
 266   0.0000       3.500790        95.2613 
 267   0.0000       3.564801        97.0032 
 268   0.0000       3.600988        97.9879 
 269   0.0000       3.684100       100.2495 
 270   0.0000       3.706196       100.8507 
 271   0.0000       3.756328       102.2149 
 272   0.0000       3.854172       104.8773 
 273   0.0000       3.889830       105.8476 
 274   0.0000       3.890761       105.8730 
 275   0.0000       3.892545       105.9215 
 276   0.0000       3.904833       106.2559 
 277   0.0000       3.925610       106.8213 
 278   0.0000       4.013932       109.2246 
 279   0.0000       4.060442       110.4902 
 280   0.0000       4.123078       112.1947 
 281   0.0000       4.147661       112.8636 
 282   0.0000       4.169695       113.4632 
 283   0.0000       4.407264       119.9278 
 284   0.0000       4.479743       121.9000 
 285   0.0000       4.507229       122.6479 
 286   0.0000       4.763899       129.6323 
 287   0.0000       4.943969       134.5322 
 288   0.0000       5.078611       138.1960 
 289   0.0000       5.115328       139.1952 
 290   0.0000       5.194869       141.3596 
 291   0.0000       5.222168       142.1024 
 292   0.0000       5.315822       144.6509 
 293   0.0000       5.699984       155.1044 
 294   0.0000       6.131471       166.8458 
 295   0.0000       6.413147       174.5106 
 296   0.0000       6.540850       177.9856 
 297   0.0000       6.841137       186.1568 
 298   0.0000       8.008137       217.9125 
 299   0.0000      17.556489       477.7364 
 300   0.0000      17.559784       477.8260 
 301   0.0000      17.669650       480.8156 
 302   0.0000      23.652909       643.6284 
 303   0.0000      23.894028       650.1896 
 304   0.0000      23.985832       652.6877 
 305   0.0000      24.037933       654.1054 
 306   0.0000      24.074714       655.1063 
 307   0.0000      24.183306       658.0612 
 308   0.0000      35.377876       962.6809 
 309   0.0000      35.658271       970.3109 
 310   0.0000      49.903538      1357.9443 
 311   0.0000      49.965231      1359.6231 
 312   0.0000      66.793408      1817.5410 
 313   0.0000     189.003368      5143.0431 

--------------------
FRAGMENT INFORMATION
--------------------
Fragment  1:    0   1   2   3   4   5 
Fragment  2:    6   7   8   9  10  11  12 
Fragment  3:   13  14  15  16 
Fragment  4:   17 


                    ********************************
                    * MULLIKEN POPULATION ANALYSIS *
                    ********************************

-------------------------
MULLIKEN FRAGMENT CHARGES
-------------------------
 Fragment   0 :  -0.409048
 Fragment   1 :   0.416814
 Fragment   2 :  -0.077958
 Fragment   3 :  -0.929808
Sum of fragment charges:   -1.0000000

---------------------------------
MULLIKEN FRAGMENT OVERLAP CHARGES
---------------------------------
                  0          1          2          3    
      0      15.583197   0.309454  -0.008962  -0.069938
      1       0.309454  35.135806   0.004216   0.068592
      2      -0.008962   0.004216  11.761533  -0.745316
      3      -0.069938   0.068592  -0.745316  17.303139

-----------------------
MULLIKEN ATOMIC CHARGES
-----------------------
   0 C :   -0.085398
   1 N :   -0.209342
   2 C :   -0.287216
   3 C :   -0.322229
   4 C :    0.468258
   5 C :    0.026879
   6 N :   -0.082013
   7 O :   -0.048042
   8 O :   -0.232073
   9 F :   -0.101171
  10 H :    0.299118
  11 H :    0.279757
  12 H :    0.301240
  13 C :   -0.472267
  14 H :    0.130879
  15 H :    0.131877
  16 H :    0.131553
  17 S :   -0.929808
Sum of atomic charges:   -1.0000000

--------------------------------
MULLIKEN REDUCED ORBITAL CHARGES
--------------------------------
  0 C s       :     3.333977  s :     3.333977
      pz      :     0.668124  p :     2.590981
      px      :     0.968603
      py      :     0.954254
      dz2     :     0.052766  d :     0.160441
      dxz     :     0.048796
      dyz     :     0.028397
      dx2y2   :     0.013772
      dxy     :     0.016710
  1 N s       :     3.626553  s :     3.626553
      pz      :     1.144253  p :     3.552279
      px      :     1.242536
      py      :     1.165490
      dz2     :     0.008162  d :     0.030510
      dxz     :     0.007233
      dyz     :     0.004760
      dx2y2   :     0.005498
      dxy     :     0.004856
  2 C s       :     3.366609  s :     3.366609
      pz      :     0.817145  p :     2.836439
      px      :     1.163939
      py      :     0.855355
      dz2     :     0.023604  d :     0.084168
      dxz     :     0.032161
      dyz     :     0.014836
      dx2y2   :     0.007217
      dxy     :     0.006350
  3 C s       :     3.247243  s :     3.247243
      pz      :     1.167351  p :     3.021750
      px      :     0.885988
      py      :     0.968410
      dz2     :     0.015344  d :     0.053237
      dxz     :     0.017442
      dyz     :     0.005113
      dx2y2   :     0.008229
      dxy     :     0.007110
  4 C s       :     2.546769  s :     2.546769
      pz      :     0.872234  p :     2.927803
      px      :     1.245473
      py      :     0.810095
      dz2     :     0.016596  d :     0.057170
      dxz     :     0.015759
      dyz     :     0.010577
      dx2y2   :     0.007229
      dxy     :     0.007010
  5 C s       :     3.259992  s :     3.259992
      pz      :     1.024280  p :     2.640022
      px      :     0.453703
      py      :     1.162039
      dz2     :     0.013590  d :     0.073107
      dxz     :     0.029853
      dyz     :     0.010282
      dx2y2   :     0.011207
      dxy     :     0.008174
  6 N s       :     3.580178  s :     3.580178
      pz      :     1.070754  p :     3.392842
      px      :     1.225814
      py      :     1.096273
      dz2     :     0.027715  d :     0.108994
      dxz     :     0.039341
      dyz     :     0.023082
      dx2y2   :     0.008552
      dxy     :     0.010304
  7 O s       :     3.773708  s :     3.773708
      pz      :     1.026651  p :     4.255650
      px      :     1.827184
      py      :     1.401815
      dz2     :     0.009705  d :     0.018684
      dxz     :     0.003509
      dyz     :     0.005301
      dx2y2   :     0.000102
      dxy     :     0.000067
  8 O s       :     3.818825  s :     3.818825
      pz      :     1.627162  p :     4.401133
      px      :     1.219263
      py      :     1.554708
      dz2     :     0.001059  d :     0.012115
      dxz     :     0.004899
      dyz     :     0.000882
      dx2y2   :     0.003117
      dxy     :     0.002158
  9 F s       :     3.917263  s :     3.917263
      pz      :     1.389186  p :     5.178581
      px      :     1.915957
      py      :     1.873438
      dz2     :     0.003093  d :     0.005327
      dxz     :     0.000996
      dyz     :     0.001201
      dx2y2   :     0.000027
      dxy     :     0.000009
 10 H s       :     0.676989  s :     0.676989
      pz      :     0.005480  p :     0.023894
      px      :     0.014100
      py      :     0.004313
 11 H s       :     0.695315  s :     0.695315
      pz      :     0.016350  p :     0.024929
      px      :     0.003643
      py      :     0.004936
 12 H s       :     0.672779  s :     0.672779
      pz      :     0.008001  p :     0.025981
      px      :     0.013684
      py      :     0.004295
 13 C s       :     3.332066  s :     3.332066
      pz      :     1.000807  p :     3.087573
      px      :     1.037430
      py      :     1.049336
      dz2     :     0.013685  d :     0.052627
      dxz     :     0.013711
      dyz     :     0.005848
      dx2y2   :     0.009386
      dxy     :     0.009996
 14 H s       :     0.846501  s :     0.846501
      pz      :     0.004804  p :     0.022620
      px      :     0.005284
      py      :     0.012532
 15 H s       :     0.845434  s :     0.845434
      pz      :     0.004903  p :     0.022689
      px      :     0.010570
      py      :     0.007216
 16 H s       :     0.845766  s :     0.845766
      pz      :     0.010232  p :     0.022681
      px      :     0.007748
      py      :     0.004701
 17 S s       :     5.964266  s :     5.964266
      pz      :     3.306797  p :    10.934164
      px      :     3.760849
      py      :     3.866517
      dz2     :     0.008287  d :     0.031378
      dxz     :     0.011289
      dyz     :     0.007146
      dx2y2   :     0.001714
      dxy     :     0.002942


                     *******************************
                     * LOEWDIN POPULATION ANALYSIS *
                     *******************************

------------------------
LOEWDIN FRAGMENT CHARGES
------------------------
 Fragment   0 :   0.000801
 Fragment   1 :  -0.078686
 Fragment   2 :  -0.342884
 Fragment   3 :  -0.579230

----------------------------
LOEWDIN FRAGMENT BOND ORDERS
----------------------------
                  0          1          2          3    
      0      56.999460   6.774019   0.015525   0.129985
      1       6.774019  43.800925   0.005980   0.056636
      2       0.015525   0.005980  15.390553   1.724183
      3       0.129985   0.056636   1.724183  16.579230

----------------------
LOEWDIN ATOMIC CHARGES
----------------------
   0 C :    0.110869
   1 N :   -0.113106
   2 C :    0.075406
   3 C :   -0.048736
   4 C :    0.046789
   5 C :   -0.070420
   6 N :    0.240678
   7 O :   -0.155155
   8 O :   -0.341161
   9 F :   -0.078744
  10 H :    0.086548
  11 H :    0.082310
  12 H :    0.086838
  13 C :   -0.351968
  14 H :    0.003700
  15 H :    0.002597
  16 H :    0.002786
  17 S :   -0.579230

-------------------------------
LOEWDIN REDUCED ORBITAL CHARGES
-------------------------------
  0 C s       :     2.743879  s :     2.743879
      pz      :     0.849257  p :     2.816053
      px      :     1.080725
      py      :     0.886071
      dz2     :     0.112564  d :     0.329199
      dxz     :     0.100641
      dyz     :     0.050346
      dx2y2   :     0.033872
      dxy     :     0.031776
  1 N s       :     3.151316  s :     3.151316
      pz      :     1.301239  p :     3.904956
      px      :     1.416875
      py      :     1.186842
      dz2     :     0.017376  d :     0.056834
      dxz     :     0.015718
      dyz     :     0.007809
      dx2y2   :     0.009534
      dxy     :     0.006398
  2 C s       :     2.786838  s :     2.786838
      pz      :     1.032992  p :     2.955805
      px      :     1.097081
      py      :     0.825733
      dz2     :     0.060321  d :     0.181951
      dxz     :     0.069011
      dyz     :     0.028090
      dx2y2   :     0.014026
      dxy     :     0.010503
  3 C s       :     2.782255  s :     2.782255
      pz      :     1.082950  p :     3.142093
      px      :     1.099142
      py      :     0.960000
      dz2     :     0.034177  d :     0.124388
      dxz     :     0.045099
      dyz     :     0.008041
      dx2y2   :     0.022195
      dxy     :     0.014876
  4 C s       :     2.782085  s :     2.782085
      pz      :     1.075215  p :     3.042845
      px      :     1.119090
      py      :     0.848540
      dz2     :     0.040972  d :     0.128281
      dxz     :     0.038918
      dyz     :     0.021258
      dx2y2   :     0.015061
      dxy     :     0.012073
  5 C s       :     2.757898  s :     2.757898
      pz      :     1.091149  p :     3.132136
      px      :     0.958736
      py      :     1.082250
      dz2     :     0.039878  d :     0.180387
      dxz     :     0.071981
      dyz     :     0.019742
      dx2y2   :     0.031411
      dxy     :     0.017376
  6 N s       :     3.051909  s :     3.051909
      pz      :     1.206166  p :     3.501028
      px      :     1.215530
      py      :     1.079332
      dz2     :     0.060429  d :     0.206385
      dxz     :     0.076177
      dyz     :     0.035714
      dx2y2   :     0.017519
      dxy     :     0.016546
  7 O s       :     3.581018  s :     3.581018
      pz      :     1.283858  p :     4.541836
      px      :     1.838830
      py      :     1.419148
      dz2     :     0.020427  d :     0.032302
      dxz     :     0.005157
      dyz     :     0.006527
      dx2y2   :     0.000119
      dxy     :     0.000072
  8 O s       :     3.666548  s :     3.666548
      pz      :     1.711074  p :     4.654128
      px      :     1.370020
      py      :     1.573034
      dz2     :     0.001546  d :     0.020485
      dxz     :     0.009266
      dyz     :     0.001175
      dx2y2   :     0.005710
      dxy     :     0.002788
  9 F s       :     3.714924  s :     3.714924
      pz      :     1.535600  p :     5.356454
      px      :     1.934433
      py      :     1.886422
      dz2     :     0.004760  d :     0.007366
      dxz     :     0.001184
      dyz     :     0.001376
      dx2y2   :     0.000037
      dxy     :     0.000009
 10 H s       :     0.843080  s :     0.843080
      pz      :     0.016677  p :     0.070372
      px      :     0.042243
      py      :     0.011452
 11 H s       :     0.845234  s :     0.845234
      pz      :     0.047823  p :     0.072456
      px      :     0.011202
      py      :     0.013430
 12 H s       :     0.839135  s :     0.839135
      pz      :     0.023487  p :     0.074026
      px      :     0.039250
      py      :     0.011290
 13 C s       :     2.856702  s :     2.856702
      pz      :     1.143057  p :     3.388348
      px      :     1.125012
      py      :     1.120279
      dz2     :     0.028112  d :     0.106918
      dxz     :     0.028886
      dyz     :     0.012119
      dx2y2   :     0.018135
      dxy     :     0.019667
 14 H s       :     0.924531  s :     0.924531
      pz      :     0.014784  p :     0.071769
      px      :     0.016087
      py      :     0.040898
 15 H s       :     0.925515  s :     0.925515
      pz      :     0.015493  p :     0.071888
      px      :     0.034297
      py      :     0.022098
 16 H s       :     0.925422  s :     0.925422
      pz      :     0.034115  p :     0.071792
      px      :     0.023922
      py      :     0.013755
 17 S s       :     5.587783  s :     5.587783
      pz      :     3.405596  p :    10.954115
      px      :     3.733777
      py      :     3.814742
      dz2     :     0.009761  d :     0.037331
      dxz     :     0.013638
      dyz     :     0.008518
      dx2y2   :     0.001925
      dxy     :     0.003489


                      *****************************
                      * MAYER POPULATION ANALYSIS *
                      *****************************

  NA   - Mulliken gross atomic population
  ZA   - Total nuclear charge
  QA   - Mulliken gross atomic charge
  VA   - Mayer's total valence
  BVA  - Mayer's bonded valence
  FA   - Mayer's free valence

  ATOM       NA         ZA         QA         VA         BVA        FA
  0 C      6.0854     6.0000    -0.0854     4.2803     4.2803    -0.0000
  1 N      7.2093     7.0000    -0.2093     2.7218     2.7218    -0.0000
  2 C      6.2872     6.0000    -0.2872     3.9652     3.9652     0.0000
  3 C      6.3222     6.0000    -0.3222     4.3954     4.3954     0.0000
  4 C      5.5317     6.0000     0.4683     4.2960     4.2960    -0.0000
  5 C      5.9731     6.0000     0.0269     3.1726     3.1726     0.0000
  6 N      7.0820     7.0000    -0.0820     3.9919     3.9919    -0.0000
  7 O      8.0480     8.0000    -0.0480     2.1857     2.1857    -0.0000
  8 O      8.2321     8.0000    -0.2321     2.0400     2.0400     0.0000
  9 F      9.1012     9.0000    -0.1012     0.9596     0.9596    -0.0000
 10 H      0.7009     1.0000     0.2991     0.8661     0.8661     0.0000
 11 H      0.7202     1.0000     0.2798     0.9142     0.9142     0.0000
 12 H      0.6988     1.0000     0.3012     0.8629     0.8629     0.0000
 13 C      6.4723     6.0000    -0.4723     3.6197     3.6197     0.0000
 14 H      0.8691     1.0000     0.1309     0.9437     0.9437     0.0000
 15 H      0.8681     1.0000     0.1319     0.9329     0.9329    -0.0000
 16 H      0.8684     1.0000     0.1316     0.9302     0.9302    -0.0000
 17 S     16.9298    16.0000    -0.9298     0.6522     0.6522     0.0000

  Mayer bond orders larger than 0.100000
B(  0-C ,  1-N ) :   1.3288 B(  0-C ,  2-C ) :   0.1752 B(  0-C ,  3-C ) :   0.1269 
B(  0-C ,  4-C ) :   0.2183 B(  0-C ,  5-C ) :   1.1771 B(  0-C ,  6-N ) :  -0.1358 
B(  0-C ,  9-F ) :   1.4490 B(  1-N ,  2-C ) :   1.1846 B(  1-N ,  5-C ) :   0.1566 
B(  2-C ,  3-C ) :   1.5905 B(  2-C , 10-H ) :   0.8817 B(  3-C ,  4-C ) :   1.5189 
B(  3-C ,  8-O ) :   0.1558 B(  3-C , 11-H ) :   0.8346 B(  4-C ,  5-C ) :   1.6490 
B(  4-C ,  6-N ) :  -0.2052 B(  4-C ,  8-O ) :   0.2202 B(  4-C ,  9-F ) :  -0.1291 
[...]
 289   0.0000       5.126544       139.5004 
 290   0.0000       5.213180       141.8578 
 291   0.0000       5.259774       143.1257 
 292   0.0000       5.392185       146.7288 
 293   0.0000       5.804568       157.9503 
 294   0.0000       6.265952       170.5052 
 295   0.0000       6.422854       174.7747 
 296   0.0000       6.552628       178.3061 
 297   0.0000       6.864584       186.7948 
 298   0.0000       8.010087       217.9656 
 299   0.0000      17.557692       477.7691 
 300   0.0000      17.560254       477.8388 
 301   0.0000      17.670125       480.8286 
 302   0.0000      23.717425       645.3839 
 303   0.0000      23.977061       652.4490 
 304   0.0000      24.035130       654.0291 
 305   0.0000      24.038742       654.1274 
 306   0.0000      24.191373       658.2807 
 307   0.0000      24.291148       660.9957 
 308   0.0000      35.406545       963.4611 
 309   0.0000      35.755651       972.9607 
 310   0.0000      49.913465      1358.2144 
 311   0.0000      49.993273      1360.3861 
 312   0.0000      66.808438      1817.9500 
 313   0.0000     189.005608      5143.1041 

--------------------
FRAGMENT INFORMATION
--------------------
Fragment  1:    0   1   2   3   4   5 
Fragment  2:    6   7   8   9  10  11  12 
Fragment  3:   13  14  15  16 
Fragment  4:   17 


                    ********************************
                    * MULLIKEN POPULATION ANALYSIS *
                    ********************************

-------------------------
MULLIKEN FRAGMENT CHARGES
-------------------------
 Fragment   0 :  -0.409004
 Fragment   1 :   0.417958
 Fragment   2 :  -0.081113
 Fragment   3 :  -0.927842
Sum of fragment charges:   -1.0000000

---------------------------------
MULLIKEN FRAGMENT OVERLAP CHARGES
---------------------------------
                  0          1          2          3    
      0      10.525376   0.233997  -0.010953  -0.081359
      1       0.233997  35.131206   0.006734   0.077203
      2      -0.010953   0.006734  11.764394  -0.751657
      3      -0.081359   0.077203  -0.751657  17.305748

-----------------------
MULLIKEN ATOMIC CHARGES
-----------------------
   0 C :   -0.021087
   1 N :   -0.200670
   2 C :   -0.242481
   3 C :   -0.414017
   4 C :    0.498376
   5 C :   -0.029124
   6 N :   -0.044376
   7 O :   -0.103122
   8 O :   -0.157440
   9 F :   -0.122160
  10 H :    0.286798
  11 H :    0.271408
  12 H :    0.286851
  13 C :   -0.475421
  14 H :    0.130830
  15 H :    0.131730
  16 H :    0.131747
  17 S :   -0.927842
Sum of atomic charges:   -1.0000000

--------------------------------
MULLIKEN REDUCED ORBITAL CHARGES
--------------------------------
  0 C s       :     3.253378  s :     3.253378
      pz      :     0.666161  p :     2.596332
      px      :     0.970418
      py      :     0.959754
      dz2     :     0.057824  d :     0.171377
      dxz     :     0.051009
      dyz     :     0.029279
      dx2y2   :     0.014703
      dxy     :     0.018563
  1 N s       :     3.598356  s :     3.598356
      pz      :     1.165780  p :     3.567235
      px      :     1.250130
      py      :     1.151325
      dz2     :     0.008988  d :     0.035079
      dxz     :     0.008599
      dyz     :     0.005410
      dx2y2   :     0.006171
      dxy     :     0.005912
  2 C s       :     3.290633  s :     3.290633
      pz      :     0.825331  p :     2.860951
      px      :     1.160374
      py      :     0.875246
      dz2     :     0.025807  d :     0.090898
      dxz     :     0.034227
      dyz     :     0.016234
      dx2y2   :     0.008011
      dxy     :     0.006619
  3 C s       :     3.301680  s :     3.301680
      pz      :     1.175308  p :     3.055613
      px      :     0.907399
      py      :     0.972906
      dz2     :     0.015841  d :     0.056724
      dxz     :     0.019399
      dyz     :     0.005596
      dx2y2   :     0.008207
      dxy     :     0.007681
  4 C s       :     2.480249  s :     2.480249
      pz      :     0.924203  p :     2.959613
      px      :     1.226998
      py      :     0.808412
      dz2     :     0.018603  d :     0.061763
      dxz     :     0.015211
      dyz     :     0.011703
      dx2y2   :     0.008713
      dxy     :     0.007533
  5 C s       :     3.255992  s :     3.255992
      pz      :     1.057716  p :     2.697860
      px      :     0.474967
      py      :     1.165178
      dz2     :     0.013349  d :     0.075271
      dxz     :     0.031859
      dyz     :     0.010623
      dx2y2   :     0.011276
      dxy     :     0.008165
  6 N s       :     3.519693  s :     3.519693
      pz      :     1.056692  p :     3.398443
      px      :     1.239896
      py      :     1.101855
      dz2     :     0.033836  d :     0.126241
      dxz     :     0.043087
      dyz     :     0.027224
      dx2y2   :     0.010028
      dxy     :     0.012065
  7 O s       :     3.786785  s :     3.786785
      pz      :     1.021602  p :     4.297865
      px      :     1.832372
      py      :     1.443892
      dz2     :     0.009750  d :     0.018472
      dxz     :     0.003409
      dyz     :     0.005151
      dx2y2   :     0.000095
      dxy     :     0.000067
  8 O s       :     3.795529  s :     3.795529
      pz      :     1.524140  p :     4.345366
      px      :     1.345375
      py      :     1.475851
      dz2     :     0.001904  d :     0.016546
      dxz     :     0.006632
      dyz     :     0.001722
      dx2y2   :     0.003322
      dxy     :     0.002965
  9 F s       :     3.917860  s :     3.917860
      pz      :     1.401340  p :     5.199091
      px      :     1.919539
      py      :     1.878212
      dz2     :     0.003034  d :     0.005209
      dxz     :     0.000966
      dyz     :     0.001170
      dx2y2   :     0.000029
      dxy     :     0.000010
 10 H s       :     0.689873  s :     0.689873
      pz      :     0.004501  p :     0.023329
      px      :     0.014509
      py      :     0.004320
 11 H s       :     0.702504  s :     0.702504
      pz      :     0.016275  p :     0.026088
      px      :     0.004421
      py      :     0.005392
 12 H s       :     0.684660  s :     0.684660
      pz      :     0.007587  p :     0.028489
      px      :     0.016069
      py      :     0.004833
 13 C s       :     3.334883  s :     3.334883
      pz      :     1.000197  p :     3.087895
      px      :     1.037942
      py      :     1.049755
      dz2     :     0.013771  d :     0.052643
      dxz     :     0.013721
      dyz     :     0.005817
      dx2y2   :     0.009516
      dxy     :     0.009817
 14 H s       :     0.846539  s :     0.846539
      pz      :     0.004778  p :     0.022631
      px      :     0.005259
      py      :     0.012593
 15 H s       :     0.845602  s :     0.845602
      pz      :     0.004880  p :     0.022668
      px      :     0.010613
      py      :     0.007174
 16 H s       :     0.845573  s :     0.845573
      pz      :     0.010202  p :     0.022680
      px      :     0.007764
      py      :     0.004713
 17 S s       :     5.962868  s :     5.962868
      pz      :     3.295658  p :    10.933597
      px      :     3.766053
      py      :     3.871886
      dz2     :     0.008546  d :     0.031376
      dxz     :     0.011263
      dyz     :     0.007069
      dx2y2   :     0.001678
      dxy     :     0.002820


                     *******************************
                     * LOEWDIN POPULATION ANALYSIS *
                     *******************************

------------------------
LOEWDIN FRAGMENT CHARGES
------------------------
 Fragment   0 :  -0.008249
 Fragment   1 :  -0.075621
 Fragment   2 :  -0.342570
 Fragment   3 :  -0.573560

----------------------------
LOEWDIN FRAGMENT BOND ORDERS
----------------------------
                  0          1          2          3    
      0      57.221850   6.751780   0.015925   0.135651
      1       6.751780  44.085408   0.006695   0.060741
      2       0.015925   0.006695  15.389175   1.723367
      3       0.135651   0.060741   1.723367  16.573560

----------------------
LOEWDIN ATOMIC CHARGES
----------------------
   0 C :    0.081048
   1 N :   -0.075227
   2 C :    0.050566
   3 C :   -0.042987
   4 C :    0.046135
   5 C :   -0.067784
   6 N :    0.223112
   7 O :   -0.186972
   8 O :   -0.257875
   9 F :   -0.089703
  10 H :    0.084209
  11 H :    0.076986
  12 H :    0.074622
  13 C :   -0.351820
  14 H :    0.003639
  15 H :    0.002737
  16 H :    0.002873
  17 S :   -0.573560

-------------------------------
LOEWDIN REDUCED ORBITAL CHARGES
-------------------------------
  0 C s       :     2.729151  s :     2.729151
      pz      :     0.851632  p :     2.836149
      px      :     1.096612
      py      :     0.887905
      dz2     :     0.123305  d :     0.353653
      dxz     :     0.104898
      dyz     :     0.051878
      dx2y2   :     0.037657
      dxy     :     0.035914
  1 N s       :     3.098109  s :     3.098109
      pz      :     1.310136  p :     3.910810
      px      :     1.429893
      py      :     1.170782
      dz2     :     0.019428  d :     0.066308
      dxz     :     0.018503
      dyz     :     0.009433
      dx2y2   :     0.010979
      dxy     :     0.007965
  2 C s       :     2.769387  s :     2.769387
      pz      :     1.046382  p :     2.981282
      px      :     1.092322
      py      :     0.842578
      dz2     :     0.066421  d :     0.198765
      dxz     :     0.074486
      dyz     :     0.031611
      dx2y2   :     0.015351
      dxy     :     0.010896
  3 C s       :     2.764840  s :     2.764840
      pz      :     1.085312  p :     3.146688
      px      :     1.100556
      py      :     0.960819
      dz2     :     0.035660  d :     0.131460
      dxz     :     0.048558
      dyz     :     0.008728
      dx2y2   :     0.022399
      dxy     :     0.016115
  4 C s       :     2.760193  s :     2.760193
      pz      :     1.092762  p :     3.054836
      px      :     1.113342
      py      :     0.848731
      dz2     :     0.045190  d :     0.138836
      dxz     :     0.039405
      dyz     :     0.023569
      dx2y2   :     0.017496
      dxy     :     0.013175
  5 C s       :     2.748358  s :     2.748358
      pz      :     1.099079  p :     3.132834
      px      :     0.956327
      py      :     1.077427
      dz2     :     0.040269  d :     0.186592
      dxz     :     0.076604
      dyz     :     0.020758
      dx2y2   :     0.031641
      dxy     :     0.017320
  6 N s       :     3.018161  s :     3.018161
      pz      :     1.213389  p :     3.516612
      px      :     1.222322
      py      :     1.080900
      dz2     :     0.072144  d :     0.242115
      dxz     :     0.086854
      dyz     :     0.042602
      dx2y2   :     0.020970
      dxy     :     0.019545
  7 O s       :     3.577270  s :     3.577270
      pz      :     1.275956  p :     4.577687
      px      :     1.842602
      py      :     1.459128
      dz2     :     0.020478  d :     0.032015
      dxz     :     0.005029
      dyz     :     0.006323
      dx2y2   :     0.000114
      dxy     :     0.000072
  8 O s       :     3.597627  s :     3.597627
      pz      :     1.648187  p :     4.631586
      px      :     1.484322
      py      :     1.499078
      dz2     :     0.002789  d :     0.028662
      dxz     :     0.013430
      dyz     :     0.002296
      dx2y2   :     0.006319
      dxy     :     0.003827
  9 F s       :     3.713569  s :     3.713569
      pz      :     1.541278  p :     5.368897
      px      :     1.937390
      py      :     1.890229
      dz2     :     0.004676  d :     0.007237
      dxz     :     0.001164
      dyz     :     0.001348
      dx2y2   :     0.000039
      dxy     :     0.000010
 10 H s       :     0.847397  s :     0.847397
      pz      :     0.014033  p :     0.068394
      px      :     0.042754
      py      :     0.011607
 11 H s       :     0.847631  s :     0.847631
      pz      :     0.047380  p :     0.075383
      px      :     0.013312
      py      :     0.014690
 12 H s       :     0.844375  s :     0.844375
      pz      :     0.021738  p :     0.081004
      px      :     0.046436
      py      :     0.012829
 13 C s       :     2.856734  s :     2.856734
      pz      :     1.143440  p :     3.388133
      px      :     1.124721
      py      :     1.119972
      dz2     :     0.028345  d :     0.106953
      dxz     :     0.028886
      dyz     :     0.012037
      dx2y2   :     0.018395
      dxy     :     0.019290
 14 H s       :     0.924550  s :     0.924550
      pz      :     0.014732  p :     0.071811
      px      :     0.015980
      py      :     0.041099
 15 H s       :     0.925480  s :     0.925480
      pz      :     0.015424  p :     0.071783
      px      :     0.034416
      py      :     0.021943
 16 H s       :     0.925349  s :     0.925349
      pz      :     0.034011  p :     0.071778
      px      :     0.023979
      py      :     0.013788
 17 S s       :     5.586423  s :     5.586423
      pz      :     3.397245  p :    10.949806
      px      :     3.736135
      py      :     3.816426
      dz2     :     0.010079  d :     0.037330
      dxz     :     0.013605
      dyz     :     0.008423
      dx2y2   :     0.001883
      dxy     :     0.003340


                      *****************************
                      * MAYER POPULATION ANALYSIS *
                      *****************************

  NA   - Mulliken gross atomic population
  ZA   - Total nuclear charge
  QA   - Mulliken gross atomic charge
  VA   - Mayer's total valence
  BVA  - Mayer's bonded valence
  FA   - Mayer's free valence

  ATOM       NA         ZA         QA         VA         BVA        FA
  0 C      6.0211     6.0000    -0.0211     4.2147     4.2147    -0.0000
  1 N      7.2007     7.0000    -0.2007     2.7547     2.7547    -0.0000
  2 C      6.2425     6.0000    -0.2425     3.9902     3.9902    -0.0000
  3 C      6.4140     6.0000    -0.4140     4.5610     4.5610    -0.0000
  4 C      5.5016     6.0000     0.4984     4.2938     4.2938    -0.0000
  5 C      6.0291     6.0000    -0.0291     3.3321     3.3321     0.0000
  6 N      7.0444     7.0000    -0.0444     4.0261     4.0261    -0.0000
  7 O      8.1031     8.0000    -0.1031     2.1650     2.1650     0.0000
  8 O      8.1574     8.0000    -0.1574     2.1819     2.1819    -0.0000
  9 F      9.1222     9.0000    -0.1222     0.9213     0.9213    -0.0000
 10 H      0.7132     1.0000     0.2868     0.8678     0.8678     0.0000
 11 H      0.7286     1.0000     0.2714     0.9215     0.9215    -0.0000
 12 H      0.7131     1.0000     0.2869     0.8769     0.8769     0.0000
 13 C      6.4754     6.0000    -0.4754     3.6194     3.6194     0.0000
 14 H      0.8692     1.0000     0.1308     0.9437     0.9437    -0.0000
 15 H      0.8683     1.0000     0.1317     0.9330     0.9330    -0.0000
 16 H      0.8683     1.0000     0.1317     0.9298     0.9298     0.0000
 17 S     16.9278    16.0000    -0.9278     0.6483     0.6483     0.0000

  Mayer bond orders larger than 0.100000
B(  0-C ,  1-N ) :   1.3321 B(  0-C ,  2-C ) :   0.1678 B(  0-C ,  3-C ) :   0.1741 
B(  0-C ,  4-C ) :   0.2035 B(  0-C ,  5-C ) :   1.1852 B(  0-C ,  6-N ) :  -0.1547 
B(  0-C ,  8-O ) :  -0.1252 B(  0-C ,  9-F ) :   1.3901 B(  1-N ,  2-C ) :   1.1552 
B(  1-N ,  5-C ) :   0.1973 B(  2-C ,  3-C ) :   1.6563 B(  2-C , 10-H ) :   0.8895 
B(  3-C ,  4-C ) :   1.4415 B(  3-C ,  5-C ) :   0.1064 B(  3-C ,  8-O ) :   0.1859 
B(  3-C , 11-H ) :   0.8285 B(  4-C ,  5-C ) :   1.7095 B(  4-C ,  6-N ) :  -0.1508 
B(  4-C ,  8-O ) :   0.2816 B(  4-C ,  9-F ) :  -0.1459 B(  4-C , 12-H ) :   0.7234 
B(  4-C , 13-C ) :   0.1052 B(  5-C ,  6-N ) :   0.7306 B(  5-C ,  8-O ) :  -0.2684 
B(  5-C ,  9-F ) :  -0.3667 B(  5-C , 12-H ) :   0.1598 B(  6-N ,  7-O ) :   1.8109 
B(  6-N ,  8-O ) :   1.8149 B(  7-O ,  8-O ) :   0.2826 B( 13-C , 14-H ) :   0.9871 
B( 13-C , 15-H ) :   0.9857 B( 13-C , 16-H ) :   0.9806 B( 13-C , 17-S ) :   0.6630 


-------
TIMINGS
-------

Total SCF time: 0 days 0 hours 0 min 19 sec 

Total time                  ....      19.158 sec
Sum of individual times     ....      18.196 sec  ( 95.0%)

Fock matrix formation       ....      16.351 sec  ( 85.4%)
  Split-RI-J                ....       0.955 sec  (  5.8% of F)
  Chain of spheres X        ....      11.580 sec  ( 70.8% of F)
  XC integration            ....       2.232 sec  ( 13.6% of F)
    Basis function eval.    ....       0.139 sec  (  6.2% of XC)
    Density eval.           ....       0.278 sec  ( 12.4% of XC)
    XC-Functional eval.     ....       0.635 sec  ( 28.5% of XC)
    XC-Potential eval.      ....       0.108 sec  (  4.8% of XC)
Diagonalization             ....       0.027 sec  (  0.1%)
Density matrix formation    ....       0.012 sec  (  0.1%)
Population analysis         ....       0.079 sec  (  0.4%)
Initial guess               ....       0.046 sec  (  0.2%)
Orbital Transformation      ....       0.000 sec  (  0.0%)
Orbital Orthonormalization  ....       0.034 sec  (  0.2%)
DIIS solution               ....       0.011 sec  (  0.1%)
SOSCF solution              ....       0.108 sec  (  0.6%)
Grid generation             ....       1.562 sec  (  8.2%)

Maximum memory used throughout the entire SCF-calculation: 69.3 MB

-------------------------   --------------------
FINAL SINGLE POINT ENERGY      -990.258913548409
-------------------------   --------------------

                                *** OPTIMIZATION RUN DONE ***

                            ***************************************
                            *     ORCA property calculations      *
                            ***************************************

                                    ---------------------
                                    Active property flags
                                    ---------------------
   (+) Dipole Moment


------------------------------------------------------------------------------
                       ORCA ELECTRIC PROPERTIES CALCULATION
------------------------------------------------------------------------------

Dipole Moment Calculation                       ... on
Quadrupole Moment Calculation                   ... off
Polarizability Calculation                      ... off
GBWName                                         ... structure_opt.gbw
Electron density                                ... structure_opt.scfp
The origin for moment calculation is the CENTER OF MASS  = (-2.978398, -1.041587  6.311699)

-------------
DIPOLE MOMENT
-------------
                                X             Y             Z
Electronic contribution:      8.90859       9.26875     -19.01563
Nuclear contribution   :     -4.42672      -6.14671      17.89237
                        -----------------------------------------
Total Dipole Moment    :      4.48187       3.12203      -1.12326
                        -----------------------------------------
Magnitude (a.u.)       :      5.57638
Magnitude (Debye)      :     14.17403



--------------------
Rotational spectrum 
--------------------
 
Rotational constants in cm-1:     0.036718     0.013419     0.010688 
Rotational constants in MHz :  1100.784217   402.305728   320.404552 

 Dipole components along the rotational axes: 
x,y,z [a.u.] :    -4.559553     2.674975     1.775098 
x,y,z [Debye]:   -11.589462     6.799247     4.511939 

 

Timings for individual modules:

Sum of individual times         ...      848.870 sec (=  14.148 min)
GTO integral calculation        ...       44.731 sec (=   0.746 min)   5.3 %
SCF iterations                  ...      665.482 sec (=  11.091 min)  78.4 %
SCF Gradient evaluation         ...      137.582 sec (=   2.293 min)  16.2 %
Geometry relaxation             ...        1.076 sec (=   0.018 min)   0.1 %
                             ****ORCA TERMINATED NORMALLY****
TOTAL RUN TIME: 0 days 0 hours 14 minutes 55 seconds 843 msec
