
                                 *****************
                                 * O   R   C   A *
                                 *****************

                                            #,                                       
                                            ###                                      
                                            ####                                     
                                            #####                                    
                                            ######                                   
                                           ########,                                 
                                     ,,################,,,,,                         
                               ,,#################################,,                 
                          ,,##########################################,,             
                       ,#########################################, ''#####,          
                    ,#############################################,,   '####,        
                  ,##################################################,,,,####,       
                ,###########''''           ''''###############################       
              ,#####''   ,,,,##########,,,,          '''####'''          '####       
            ,##' ,,,,###########################,,,                        '##       
           ' ,,###''''                  '''############,,,                           
         ,,##''                                '''############,,,,        ,,,,,,###''
      ,#''                                            '''#######################'''  
     '                                                          ''''####''''         
             ,#######,   #######,   ,#######,      ##                                
            ,#'     '#,  ##    ##  ,#'     '#,    #''#        ######   ,####,        
            ##       ##  ##   ,#'  ##            #'  '#       #        #'  '#        
            ##       ##  #######   ##           ,######,      #####,   #    #        
            '#,     ,#'  ##    ##  '#,     ,#' ,#      #,         ##   #,  ,#        
             '#######'   ##     ##  '#######'  #'      '#     #####' # '####'        



                  #######################################################
                  #                        -***-                        #
                  #          Department of theory and spectroscopy      #
                  #    Directorship and core code : Frank Neese         #
                  #        Max Planck Institute fuer Kohlenforschung    #
                  #                Kaiser Wilhelm Platz 1               #
                  #                 D-45470 Muelheim/Ruhr               #
                  #                      Germany                        #
                  #                                                     #
                  #                  All rights reserved                #
                  #                        -***-                        #
                  #######################################################


                         Program Version 5.0.1 -  RELEASE  -


 With contributions from (in alphabetic order):
   Daniel Aravena         : Magnetic Suceptibility
   Michael Atanasov       : Ab Initio Ligand Field Theory (pilot matlab implementation)
   Alexander A. Auer      : GIAO ZORA, VPT2 properties, NMR spectrum
   Ute Becker             : Parallelization
   Giovanni Bistoni       : ED, misc. LED, open-shell LED, HFLD
   Martin Brehm           : Molecular dynamics
   Dmytro Bykov           : SCF Hessian
   Vijay G. Chilkuri      : MRCI spin determinant printing, contributions to CSF-ICE
   Dipayan Datta          : RHF DLPNO-CCSD density
   Achintya Kumar Dutta   : EOM-CC, STEOM-CC
   Dmitry Ganyushin       : Spin-Orbit,Spin-Spin,Magnetic field MRCI
   Miquel Garcia          : C-PCM and meta-GGA Hessian, CC/C-PCM, Gaussian charge scheme
   Yang Guo               : DLPNO-NEVPT2, F12-NEVPT2, CIM, IAO-localization
   Andreas Hansen         : Spin unrestricted coupled pair/coupled cluster methods
   Benjamin Helmich-Paris : MC-RPA, TRAH-SCF, COSX integrals
   Lee Huntington         : MR-EOM, pCC
   Robert Izsak           : Overlap fitted RIJCOSX, COSX-SCS-MP3, EOM
   Marcus Kettner         : VPT2
   Christian Kollmar      : KDIIS, OOCD, Brueckner-CCSD(T), CCSD density, CASPT2, CASPT2-K
   Simone Kossmann        : Meta GGA functionals, TD-DFT gradient, OOMP2, MP2 Hessian
   Martin Krupicka        : Initial AUTO-CI
   Lucas Lang             : DCDCAS
   Marvin Lechner         : AUTO-CI (C++ implementation), FIC-MRCC
   Dagmar Lenk            : GEPOL surface, SMD
   Dimitrios Liakos       : Extrapolation schemes; Compound Job, initial MDCI parallelization
   Dimitrios Manganas     : Further ROCIS development; embedding schemes
   Dimitrios Pantazis     : SARC Basis sets
   Anastasios Papadopoulos: AUTO-CI, single reference methods and gradients
   Taras Petrenko         : DFT Hessian,TD-DFT gradient, ASA, ECA, R-Raman, ABS, FL, XAS/XES, NRVS
   Peter Pinski           : DLPNO-MP2, DLPNO-MP2 Gradient
   Christoph Reimann      : Effective Core Potentials
   Marius Retegan         : Local ZFS, SOC
   Christoph Riplinger    : Optimizer, TS searches, QM/MM, DLPNO-CCSD(T), (RO)-DLPNO pert. Triples
   Tobias Risthaus        : Range-separated hybrids, TD-DFT gradient, RPA, STAB
   Michael Roemelt        : Original ROCIS implementation
   Masaaki Saitow         : Open-shell DLPNO-CCSD energy and density
   Barbara Sandhoefer     : DKH picture change effects
   Avijit Sen             : IP-ROCIS
   Kantharuban Sivalingam : CASSCF convergence, NEVPT2, FIC-MRCI
   Bernardo de Souza      : ESD, SOC TD-DFT
   Georgi Stoychev        : AutoAux, RI-MP2 NMR, DLPNO-MP2 response
   Willem Van den Heuvel  : Paramagnetic NMR
   Boris Wezisla          : Elementary symmetry handling
   Frank Wennmohs         : Technical directorship


 We gratefully acknowledge several colleagues who have allowed us to
 interface, adapt or use parts of their codes:
   Stefan Grimme, W. Hujo, H. Kruse, P. Pracht,  : VdW corrections, initial TS optimization,
                  C. Bannwarth, S. Ehlert          DFT functionals, gCP, sTDA/sTD-DF
   Ed Valeev, F. Pavosevic, A. Kumar             : LibInt (2-el integral package), F12 methods
   Garnet Chan, S. Sharma, J. Yang, R. Olivares  : DMRG
   Ulf Ekstrom                                   : XCFun DFT Library
   Mihaly Kallay                                 : mrcc  (arbitrary order and MRCC methods)
   Jiri Pittner, Ondrej Demel                    : Mk-CCSD
   Frank Weinhold                                : gennbo (NPA and NBO analysis)
   Christopher J. Cramer and Donald G. Truhlar   : smd solvation model
   Lars Goerigk                                  : TD-DFT with DH, B97 family of functionals
   V. Asgeirsson, H. Jonsson                     : NEB implementation
   FAccTs GmbH                                   : IRC, NEB, NEB-TS, DLPNO-Multilevel, CI-OPT
                                                   MM, QMMM, 2- and 3-layer-ONIOM, Crystal-QMMM,
                                                   LR-CPCM, SF, NACMEs, symmetry and pop. for TD-DFT,
                                                   nearIR, NL-DFT gradient (VV10), updates on ESD,
                                                   ML-optimized integration grids
   S Lehtola, MJT Oliveira, MAL Marques          : LibXC Library
   Liviu Ungur et al                             : ANISO software


 Your calculation uses the libint2 library for the computation of 2-el integrals
 For citations please refer to: http://libint.valeyev.net

 Your ORCA version has been built with support for libXC version: 5.1.0
 For citations please refer to: https://tddft.org/programs/libxc/

 This ORCA versions uses:
   CBLAS   interface :  Fast vector & matrix operations
   LAPACKE interface :  Fast linear algebra routines
   SCALAPACK package :  Parallel linear algebra routines
   Shared memory     :  Shared parallel matrices
   BLAS/LAPACK       :  OpenBLAS 0.3.15  USE64BITINT DYNAMIC_ARCH NO_AFFINITY SkylakeX SINGLE_THREADED
        Core in use  :  SkylakeX
   Copyright (c) 2011-2014, The OpenBLAS Project




***************************************
The coordinates will be read from file: structure_opt.xyz
***************************************


Your calculation utilizes the atom-pairwise dispersion correction
based on tight binding partial charges (D4)
Cite in your paper:
E.Caldeweyher, C.Bannwarth, S.Grimme, J.Chem.Phys., (2017), 147, 034112.
E.Caldeweyher, S.Ehlert, A.Hansen, H.Neugebauer, S.Grimme, J.Chem.Phys., (2018), in progress.
   

Your calculation utilizes the SMD solvation module
Please cite in your paper:
A.V. Marenich, C.J. Cramer, D.G. Truhlar J. Phys. Chem. B, 113, (2009), 6378 

XCFun DFT library Copyright 2009-2010 Ulf Ekstrom and contributors.
See http://admol.org/xcfun for more information.
This is free software; see the source code for copying conditions.
There is ABSOLUTELY NO WARRANTY; not even for MERCHANTABILITY or FITNESS FOR A PARTICULAR PURPOSE.
For details see the documentation.
Scientific users of this library should cite U. Ekstrom, L. Visscher, R. Bast, A. J. Thorvaldsen and K. Ruud;
J.Chem.Theor.Comp. 2010, DOI: 10.1021/ct100117s
XCFun Version 0.99 

Your calculation utilizes a Nudged-Elastic-Band implementation
 by V.Asgeirsson, C. Riplinger & H. Jonsson
Please cite in your paper:
 V. Asgeirsson et al., in prep. (2019)
   

================================================================================

----- Orbital basis set information -----
Your calculation utilizes the basis: 6-311++G**
   H, Li - Ne  : R. Krishnan, J. S. Binkley, R. Seeger and J. A. Pople, J. Chem. Phys. 72, 650 (1980).
   Na - Ar     : A. D. McLean and G. S. Chandler J. Chem. Phys. 72, 5639, (1980).
   K  - Ca     : J.-P. Blaudeau, M. P. McGrath, L. A. Curtiss and L. Radom, J. Chem. Phys. 107, 5016 (1997).
   Ga - Kr     : L. A. Curtiss, M. P. McGrath, J.-P. Blandeau, N. E. Davis, R. C. Binning and L. Radom, J. Chem. Phys. 103, 6104 (1995).
   Pol./Diff.
   H, Li - Cl  : T. Clark, J. Chandrasekhar and P. v. R. Schleyer, J. Comp. Chem. 4, 294 (1983).
   H - Ne      : M. J. Frisch, J. A. Pople and J. S. Binkley, J. Chem. Phys. 80, 3265 (1984).

----- AuxJ basis set information -----
Your calculation utilizes the auxiliary basis: def2/J
   F. Weigend, Phys. Chem. Chem. Phys. 8, 1057 (2006).

================================================================================
                                        WARNINGS
                       Please study these warnings very carefully!
================================================================================


WARNING: The environment variable RSH_COMMAND is not set!
  ===> : All Displacements for the Numerical Hessian calculation
         will be started on localhost

WARNING: Geometry Optimization
  ===> : Switching off AutoStart
         For restart on a previous wavefunction, please use MOREAD

INFO   : the flag for use of the SHARK integral package has been found!

================================================================================
                                       INPUT FILE
================================================================================
NAME = TS_search_opt_without_h.inp
|  1> !wb97x 6-311++G** D4 NEB-TS OPT NUMFREQ CPCM(WATER)
|  2> %maxcore  3500
|  3> %pal
|  4> nprocs 24
|  5> end
|  6> %cpcm
|  7> smd true
|  8> SMDsolvent "water"
|  9> end
| 10> %geom
| 11> MaxIter 1000   # allows for n optimization cycles
| 12> EnforceStrictConvergence False
| 13> end
| 14> %NEB NEB_END_XYZFILE "2f3_prod_opt.xyz" END
| 15> * XYZfile -1 1 structure_opt.xyz
| 16> 
| 17>                          ****END OF INPUT****
================================================================================


------------------------------------------------------------------------------- 
                         Nudged Elastic Band Calculation                       
------------------------------------------------------------------------------- 

Number of images (incl. end points)     ....  10
Number of intermediate images           ....  8
Number of optimized images              ....  8
Optimization of end points before NEB   ....  NO
Use existing gbw files for MO input     ....  NO
Number of atoms                         ....  18
Number of (active) degrees of freedom   ....  54
Constrained atoms                       ....  None

-----------------------------------------
  REACTANT (ANGSTROEM)
-----------------------------------------
C     -0.009899    -0.017204     1.878500 
N      1.112691    -0.187459     2.492693 
C      1.205033    -0.183054     3.811838 
C      0.104273     0.001810     4.600646 
C     -1.115730     0.187311     3.979932 
C     -1.198565     0.180948     2.614863 
N     -2.468314     0.374770     1.962667 
O     -2.561472     0.373085     0.718180 
O     -3.472344     0.544756     2.738431 
F     -0.018633    -0.033538     0.528627 
H      2.191946    -0.334556     4.234623 
H      0.278593    -0.012513     5.648884 
H     -2.038461     0.340200     4.457854 
C     -4.187501    -3.018882     7.071578 
H     -4.471191    -4.065683     6.930649 
H     -5.088813    -2.427806     7.255671 
H     -3.528493    -2.944008     7.940984 
S     -3.339119    -2.408176     5.602379 

-----------------------------------------
  PRODUCT (ANGSTROEM)
-----------------------------------------
C     -0.006655     0.014080     1.789576 
N      1.150760    -0.163122     2.425247 
C      1.177726    -0.139964     3.759145 
C      0.054738     0.057580     4.546999 
C     -1.158972     0.233636     3.911162 
C     -1.178720     0.217442     2.525234 
N     -2.493686     0.427964     1.904940 
O     -2.584738     1.164910     0.947848 
O     -3.439094    -0.145340     2.414303 
F      3.139899     2.499865     0.919104 
H      2.152169    -0.281946     4.215772 
H      0.130494     0.071637     5.627108 
H     -2.077395     0.389730     4.465403 
C      0.049505     1.625975    -0.482258 
H     -0.875798     2.113075    -0.187252 
H      0.131238     1.624494    -1.570971 
H      0.921382     2.132605    -0.060262 
S      0.064147    -0.119619     0.009902 



----------------------
NEB settings
----------------------
Method type                             ....  climbing image
Threshold for climbing image            ....  2.00e-02 Eh/Bohr 
Free endpoints                          ....  off 
Tangent type                            ....  improved 
Number of intermediate images           ....  8 
Number of images free to move           ....  8 
Spring type for image distribution      ....  distance between adjacent images 
Spring constant                         ....  energy weighted (0.0100 -to- 0.1000) Eh/Bohr^2 
Spring force perp. to the path          ....  none 
Generation of initial path              ....  image dependent pair potential 
Initial path via TS guess               ....  off 

Minimization of RMSD: Rotation          ....  always 
Minimization of RMSD: Translation type  ....  centroid 
Center fixed to origin                  ....  true 
Remove external force                   ....  true 

Reparametrization of the path           ....  off 
Convergence thresholds:
Convergence monitored for               ....  all images
Scaling factor                          ....  10.00

Convergence parameters for regular images:
               Max(|Fp|)                ....  2.00e-02 Eh/Bohr
               RMS(Fp)                  ....  1.00e-02 Eh/Bohr

Convergence parameters for climbing image:
               Max(|F|)                 ....  2.00e-03 Eh/Bohr
               RMS(F)                   ....  1.00e-03 Eh/Bohr
Optimization method:
Method                                  ....  L-BFGS
Max. iterations                         ....  500 
Step size                               ....  1.00 
Maximum allowed step size               ....  0.10 Bohr

LBFGS parameters: 
               Memory                   ....  20 
               Initial step size        ....  0.0010 
               Estimate curvature       ....  YES 
               Reset on maxmove         ....  YES 
               Reparam. on reset        ....  NO 
Generation of  the initial path:
Minimize RMSD between reactant and product configurations     .... done
       RMSD before minimization         ....  5.7245 Bohr
       RMSD after minimization          ....  2.9427 Bohr
Performing linear interpolation         ....  done
Interpolation using                     ....  IDPP (Image Dependent Pair Potential)
IDPP-Settings:
       Remove global transl. and rot.   ...   true
       Convergence tolerance            ....  0.0100 1/Ang.^3
       Max. numer of iterations         ....    7000
       Spring constant                  ....  1.0000 1/Ang.^4
       Time step                        ....  0.0100 fs
       Max. movement per iteration      ....  0.0500 Ang.
       Full print                       ....  false 
idpp initial path generation successfully converged in 138 iterations
Displacement along initial path:             26.3695 Bohr
Writing initial trajectory to file      ....  TS_search_opt_without_h_initial_path_trj.xyz



----------------------
NEB OPTIMIZATION      
----------------------

Following output files will be written:
Energy profile during opt. written to    ....  TS_search_opt_without_h.interp
Optimization log-file                    ....  TS_search_opt_without_h.NEB.log
Current trajectory will be written to    ....  TS_search_opt_without_h_MEP_trj.xyz
       and to allxyz file                ....  TS_search_opt_without_h_MEP.allxyz
       and individual images to xyz file ....  TS_search_opt_without_h_im{NIm}.xyz
Trajectory history will be written to    ....  TS_search_opt_without_h_MEP_ALL_trj.xyz
Converged CI will be written to          ....  TS_search_opt_without_h_NEB-CI_converged.xyz
Converged TS will be written to          ....  TS_search_opt_without_h_NEB-TS_converged.xyz

Single point energy and gradient calculation of reactant and
product configurations (have to be performed only once)
Properties of fixed NEB end points:
               Reactant:
                         E               ....   -990.261842 Eh
                         RMS(F)          ....      0.017523 Eh/Bohr
                         MAX(|F|)        ....      0.059842 Eh/Bohr
      Warning: Reactant seems to be less converged than convergence tolerances.
               You might want to use free end NEB or preopt_ends true.
               Product:
                         E               ....   -990.305454 Eh
                         RMS(F)          ....      0.001265 Eh/Bohr
                         MAX(|F|)        ....      0.003442 Eh/Bohr



Starting iterations:

Optim.  Iteration  HEI  E(HEI)-E(0)  max(|Fp|)   RMS(Fp)    dS
Switch-on CI threshold               0.020000 
   LBFGS     0      4    0.177580    0.136603   0.022261  26.3695       
   LBFGS     1      5    0.151986    0.080857   0.012159  26.3273       
   LBFGS     2      4    0.149325    0.070540   0.011622  26.2763       
   LBFGS     3      4    0.148223    0.067650   0.010736  26.2214       
   LBFGS     4      4    0.149333    0.086483   0.011780  26.1861       
   LBFGS     5      4    0.146184    0.102685   0.011026  26.1680       
   LBFGS     6      4    0.150076    0.149677   0.015200  26.1455       
   LBFGS     7      4    0.141049    0.055457   0.007899  26.1252       
   LBFGS     8      4    0.143394    0.079317   0.009833  26.1102       
   LBFGS     9      4    0.147583    0.110543   0.012356  26.1006       
   LBFGS    10      4    0.138461    0.059804   0.007752  26.1066       
   LBFGS    11      4    0.142294    0.116102   0.012093  26.1101       
   LBFGS    12      4    0.143349    0.132659   0.014344  26.1254       
   LBFGS    13      4    0.135478    0.042181   0.006166  26.1153       
   LBFGS    14      4    0.136163    0.055550   0.007443  26.1129       
   LBFGS    15      4    0.138967    0.083673   0.010637  26.1204       
   LBFGS    16      4    0.137775    0.102091   0.010066  26.1346       
   LBFGS    17      4    0.133428    0.062681   0.008094  26.1366       
   LBFGS    18      5    0.131600    0.057871   0.007633  26.1587       
   LBFGS    19      5    0.131592    0.062775   0.008130  26.1633       
   LBFGS    20      5    0.131605    0.069911   0.009270  26.1839       
   LBFGS    21      5    0.131360    0.080189   0.010013  26.2329       
   LBFGS    22      5    0.130398    0.046915   0.006841  26.2526       
   LBFGS    23      5    0.129906    0.043411   0.006348  26.2669       
   LBFGS    24      5    0.129219    0.044858   0.006120  26.3384       
   LBFGS    25      5    0.128968    0.045134   0.006959  26.3717       
   LBFGS    26      5    0.128610    0.054831   0.007438  26.4200       
   LBFGS    27      5    0.127826    0.062256   0.007720  26.5117       
   LBFGS    28      5    0.127347    0.055720   0.006878  26.5325       
   LBFGS    29      5    0.126894    0.028755   0.004726  26.5449       
   LBFGS    30      5    0.125765    0.034896   0.004824  26.6125       
   LBFGS    31      5    0.125278    0.040164   0.005699  26.6426       
   LBFGS    32      5    0.124616    0.039240   0.005686  26.6761       
   LBFGS    33      5    0.123303    0.050607   0.005907  26.7501       
   LBFGS    34      5    0.122813    0.043906   0.005316  26.7614       
   LBFGS    35      5    0.122328    0.037712   0.004271  26.7759       
   LBFGS    36      5    0.120726    0.061226   0.006239  26.8475       
   LBFGS    37      5    0.120279    0.033168   0.003818  26.8625       
   LBFGS    38      5    0.119842    0.021526   0.003127  26.8766       
   LBFGS    39      5    0.117869    0.031000   0.004429  26.9503       
   LBFGS    40      5    0.117077    0.029558   0.004271  26.9647       
   LBFGS    41      5    0.116339    0.033422   0.003966  26.9835       

Possible intermediate minimum found at image(s): 1 
  => have a look at the .interp file.
  => it is often a good idea to divide the path calculation into smaller fragments. 

   LBFGS    42      5    0.113950    0.046236   0.005765  27.0574       
   LBFGS    43      5    0.113470    0.029502   0.003245  27.0650       
   LBFGS    44      5    0.112990    0.017877   0.002658  27.0732       

Image  5 will be converted to a climbing image in the next iteration (max(|Fp|) < 0.0200) 

Optim.  Iteration  CI   E(CI)-E(0)   max(|Fp|)   RMS(Fp)    dS     max(|FCI|)   RMS(FCI)
Convergence thresholds               0.020000   0.010000            0.002000    0.001000 
   LBFGS    45      5    0.112581    0.011881   0.002174  27.0781    0.013667    0.003642       
   LBFGS    46      5    0.110858    0.055379   0.006712  27.1146    0.014008    0.003700       
   LBFGS    47      5    0.108132    0.086173   0.009228  27.1851    0.014695    0.003828       
   LBFGS    48      5    0.107987    0.014299   0.002482  27.1796    0.015102    0.003803       
   LBFGS    49      5    0.107830    0.012178   0.002219  27.1825    0.014878    0.003777       
   LBFGS    50      5    0.106526    0.023272   0.003492  27.2120    0.013633    0.003693       
   LBFGS    51      5    0.105954    0.022592   0.003582  27.2152    0.014679    0.003671       
   LBFGS    52      5    0.105395    0.022542   0.003285  27.2224    0.014333    0.003616       
   LBFGS    53      5    0.103473    0.030853   0.004156  27.2591    0.012571    0.003502       
   LBFGS    54      5    0.102985    0.021530   0.002879  27.2644    0.011924    0.003422       
   LBFGS    55      5    0.102378    0.015657   0.002734  27.2731    0.011610    0.003414       
   LBFGS    56      5    0.099551    0.035717   0.004336  27.3244    0.010126    0.003451       
   LBFGS    57      5    0.098592    0.026922   0.003221  27.3320    0.010309    0.003367       
   LBFGS    58      5    0.097704    0.018279   0.002941  27.3454    0.010479    0.003365       
   LBFGS    59      5    0.093987    0.048462   0.005644  27.4190    0.011176    0.003495       
   LBFGS    60      5    0.093393    0.016050   0.002868  27.4252    0.011245    0.003393       
   LBFGS    61      5    0.092847    0.013026   0.002345  27.4339    0.011311    0.003397       
   LBFGS    62      5    0.088577    0.029081   0.003910  27.5183    0.011629    0.003548       
   LBFGS    63      5    0.087511    0.019598   0.003150  27.5245    0.011617    0.003464       
   LBFGS    64      5    0.086467    0.017141   0.002705  27.5384    0.011616    0.003501       
   LBFGS    65      5    0.081770    0.049456   0.005005  27.6206    0.011471    0.003775       
   LBFGS    66      5    0.080945    0.016916   0.002791  27.6330    0.011511    0.003659       
   LBFGS    67      5    0.080018    0.015279   0.002368  27.6502    0.011531    0.003683       
   LBFGS    68      5    0.074552    0.035147   0.004450  27.7642    0.011453    0.004084       
   LBFGS    69      5    0.068672    0.049518   0.006126  27.9046    0.013891    0.004583       
   LBFGS    70      5    0.067172    0.023191   0.003251  27.8884    0.014481    0.004137       
   LBFGS    71      5    0.065811    0.012937   0.002561  27.8976    0.014779    0.004189       
   LBFGS    72      5    0.062120    0.032386   0.004206  27.9486    0.015315    0.004298       
   LBFGS    73      5    0.055955    0.037389   0.005700  28.0806    0.016001    0.004357       
   LBFGS    74      5    0.054932    0.018178   0.003160  28.0979    0.015932    0.004166       
   LBFGS    75      5    0.053859    0.013573   0.002391  28.1253    0.015804    0.004110       
   LBFGS    76      5    0.048991    0.027721   0.003570  28.2604    0.015154    0.004062       
   LBFGS    77      5    0.042776    0.036862   0.004933  28.4778    0.014115    0.003968       
   LBFGS    78      5    0.041731    0.021022   0.003045  28.4807    0.013634    0.003429       
   LBFGS    79      5    0.040915    0.014792   0.002415  28.5046    0.013142    0.003367       
   LBFGS    80      5    0.039013    0.016294   0.002679  28.5668    0.012052    0.003211       
   LBFGS    81      5    0.034679    0.017669   0.003376  28.7258    0.009603    0.002726       
   LBFGS    82      5    0.034155    0.018409   0.003333  28.7184    0.009312    0.002605       
   LBFGS    83      5    0.033759    0.009443   0.002141  28.7199    0.009045    0.002562       
   LBFGS    84      5    0.032241    0.008696   0.002193  28.7471    0.008072    0.002482       
   LBFGS    85      5    0.030237    0.017540   0.003192  28.8071    0.006919    0.002420       
   LBFGS    86      5    0.026563    0.023824   0.004293  28.9577    0.006158    0.002410       
   LBFGS    87      5    0.026193    0.018555   0.003237  28.9747    0.005079    0.002192       
   LBFGS    88      5    0.025903    0.010890   0.002174  28.9881    0.005125    0.002127       
   LBFGS    89      5    0.024677    0.006892   0.001685  29.0436    0.005272    0.002136       
   LBFGS    90      5    0.023661    0.011762   0.002200  29.0749    0.005292    0.002131       
   LBFGS    91      5    0.020297    0.026541   0.004205  29.2060    0.005273    0.002119       
   LBFGS    92      5    0.019937    0.034740   0.004436  29.2205    0.004978    0.001987       
   LBFGS    93      5    0.019685    0.013773   0.002457  29.2221    0.004830    0.001949       
   LBFGS    94      5    0.019177    0.011676   0.001967  29.2350    0.004602    0.001929       
   LBFGS    95      5    0.018510    0.022778   0.003068  29.2668    0.004349    0.001937       
   LBFGS    96      5    0.016523    0.037584   0.005116  29.4139    0.005255    0.002042       
   LBFGS    97      5    0.016272    0.024474   0.003457  29.4536    0.003994    0.001933       
   LBFGS    98      5    0.016085    0.012465   0.002182  29.4764    0.004080    0.001894       
   LBFGS    99      5    0.015111    0.015830   0.002433  29.5983    0.004503    0.001898       
   LBFGS   100      5    0.014420    0.017854   0.002762  29.6944    0.004616    0.001920       
   LBFGS   101      5    0.014420    0.017852   0.002762  29.6944    0.004616    0.001920       
   LBFGS   102      5    0.013966    0.041372   0.005023  29.7577    0.004360    0.001827       
   LBFGS   103      5    0.013581    0.024528   0.003510  29.8014    0.004183    0.001831       
   LBFGS   104      5    0.012774    0.011562   0.002047  29.8878    0.003947    0.001850       
   LBFGS   105      5    0.011773    0.026455   0.003932  30.0229    0.004183    0.001860       
   LBFGS   106      5    0.011479    0.035029   0.004795  30.0982    0.003913    0.001787       
   LBFGS   107      5    0.011338    0.008934   0.001736  30.1108    0.003926    0.001774       
   LBFGS   108      5    0.010874    0.018984   0.002627  30.1643    0.003974    0.001764       
   LBFGS   109      5    0.010182    0.028305   0.003983  30.2449    0.004035    0.001785       
   LBFGS   110      5    0.009288    0.021945   0.003165  30.3561    0.004061    0.001772       
   LBFGS   111      5    0.008223    0.016238   0.002687  30.5042    0.004143    0.001767       
   LBFGS   112      5    0.007940    0.020026   0.003040  30.5543    0.003981    0.001708       
   LBFGS   113      5    0.007736    0.010476   0.001954  30.5870    0.003914    0.001692       
   LBFGS   114      5    0.006488    0.015826   0.002926  30.8165    0.004348    0.001768       
   LBFGS   115      5    0.006174    0.027992   0.003715  30.8738    0.003703    0.001650       
   LBFGS   116      5    0.005981    0.010933   0.001859  30.9030    0.003747    0.001634       
   LBFGS   117      5    0.005389    0.009534   0.001880  31.0055    0.003838    0.001651       
   LBFGS   118      5    0.004757    0.017021   0.002406  31.1301    0.003850    0.001644       
   LBFGS   119      5    0.003455    0.028484   0.003614  31.4101    0.003928    0.001654       
   LBFGS   120      5    0.003261    0.021265   0.002957  31.4405    0.003769    0.001570       
   LBFGS   121      5    0.003084    0.014993   0.002275  31.4737    0.003669    0.001536       
   LBFGS   122      5    0.002208    0.008789   0.001911  31.6780    0.003419    0.001572       
   LBFGS   123      5    0.001857    0.017140   0.002329  31.8167    0.003469    0.001487       
   LBFGS   124      5    0.001530    0.016381   0.001960  31.9205    0.003518    0.001484       
   LBFGS   125      5    0.000968    0.022657   0.002918  32.1036    0.003567    0.001498       
   LBFGS   126      5    0.000790    0.026761   0.002915  32.1336    0.003479    0.001455       
   LBFGS   127      5    0.000624    0.020668   0.002460  32.1677    0.003413    0.001439       
   LBFGS   128      5    0.000069    0.018027   0.001961  32.3029    0.003263    0.001434       
   LBFGS   129      5    -0.000130    0.027822   0.002700  32.3626    0.003292    0.001410       
   LBFGS   130      5    -0.000325    0.030675   0.002930  32.4366    0.003312    0.001402       
   LBFGS   131      5    -0.000912    0.034125   0.003257  32.6658    0.003332    0.001400       
   LBFGS   132      5    -0.001042    0.025679   0.002504  32.7303    0.003283    0.001379       
   LBFGS   133      5    -0.001160    0.022468   0.002212  32.7907    0.003247    0.001369       
   LBFGS   134      5    -0.001752    0.014997   0.001694  33.1156    0.003109    0.001360       
   LBFGS   135      5    -0.002021    0.041948   0.003939  33.2599    0.003145    0.001334       
   LBFGS   136      5    -0.002314    0.043259   0.004065  33.4250    0.003169    0.001336       
   LBFGS   137      5    -0.002877    0.044704   0.004385  33.7413    0.003184    0.001361       
   LBFGS   138      5    -0.002979    0.020094   0.002335  33.7599    0.003125    0.001317       
   LBFGS   139      5    -0.003074    0.018281   0.002179  33.7843    0.003081    0.001297       
   LBFGS   140      5    -0.003569    0.012577   0.002153  33.9481    0.002887    0.001317       
   LBFGS   141      5    -0.003871    0.043924   0.004407  34.0658    0.002988    0.001267       
   LBFGS   142      5    -0.004193    0.037224   0.004361  34.2112    0.003056    0.001344       
   LBFGS   143      5    -0.004694    0.035079   0.004254  34.4667    0.003407    0.001470       
   LBFGS   144      5    -0.004831    0.026774   0.002658  34.5031    0.003290    0.001292       
   LBFGS   145      5    -0.004929    0.012021   0.001685  34.5444    0.003324    0.001244       
   LBFGS   146      5    -0.005413    0.022572   0.003434  34.8096    0.003768    0.001503       
   LBFGS   147      5    -0.005551    0.017557   0.002017  34.8543    0.003823    0.001319       
   LBFGS   148      5    -0.005692    0.011374   0.001742  34.9170    0.004053    0.001265       
   LBFGS   149      5    -0.006198    0.017660   0.002761  35.1963    0.004969    0.001598       
   LBFGS   150      5    -0.006447    0.014144   0.001950  35.2818    0.005080    0.001361       
   LBFGS   151      5    -0.006657    0.011292   0.001807  35.3801    0.005272    0.001413       
   LBFGS   152      5    -0.007230    0.013864   0.002465  35.6830    0.005856    0.001863       
   LBFGS   153      5    -0.007550    0.024870   0.002575  35.7829    0.006337    0.001554       
   LBFGS   154      5    -0.007793    0.011858   0.001785  35.8898    0.006741    0.001670       
   LBFGS   155      5    -0.008457    0.018146   0.002908  36.2194    0.007762    0.002281       
   LBFGS   156      5    -0.008826    0.023038   0.002308  36.3009    0.007808    0.001870       
   LBFGS   157      5    -0.009120    0.006784   0.001463  36.4012    0.007941    0.001903       
   LBFGS   158      5    -0.009809    0.017484   0.002427  36.6797    0.008419    0.002432       
   LBFGS   159      5    -0.010726    0.023301   0.003369  37.0453    0.009965    0.003045       
   LBFGS   160      5    -0.011334    0.025902   0.002621  37.1300    0.009881    0.002467       
   LBFGS   161      5    -0.011755    0.009627   0.001240  37.2265    0.010939    0.002544       
   LBFGS   162      5    -0.012592    0.012224   0.001889  37.4364    0.012643    0.003010       
   LBFGS   163      5    -0.014290    0.020725   0.003097  37.8359    0.014413    0.003616       
   LBFGS   164      5    -0.015144    0.027696   0.002719  37.9197    0.013783    0.003172       

Possible intermediate minimum found at image(s): 4 
  => have a look at the .interp file.
  => it is often a good idea to divide the path calculation into smaller fragments. 

   LBFGS   165      5    -0.015816    0.013773   0.001420  38.0098    0.013261    0.003095       
   LBFGS   166      5    -0.017620    0.011452   0.001866  38.2954    0.011215    0.003140       
   LBFGS   167      5    -0.019336    0.017554   0.002970  38.6961    0.007526    0.002612       
   LBFGS   168      5    -0.019768    0.024658   0.002487  38.7309    0.004960    0.001767       
   LBFGS   169      5    -0.019986    0.008467   0.001030  38.7664    0.003974    0.001548       
   LBFGS   170      5    -0.020315    0.005284   0.001177  38.8491    0.004258    0.001604       
   LBFGS   171      5    -0.020854    0.017614   0.002351  39.0298    0.005988    0.001925       
   LBFGS   172      5    -0.021097    0.020495   0.002052  39.0577    0.004248    0.001420       
   LBFGS   173      5    -0.021241    0.011108   0.001152  39.0862    0.004052    0.001272       
   LBFGS   174      5    -0.021594    0.006569   0.001297  39.1979    0.004190    0.001548       
   LBFGS   175      5    -0.022033    0.014435   0.002309  39.3703    0.005237    0.001992       
   LBFGS   176      5    -0.022312    0.022252   0.002161  39.4056    0.003812    0.001266       
   LBFGS   177      5    -0.022443    0.008023   0.000911  39.4413    0.003947    0.001155       
   LBFGS   178      5    -0.022650    0.005084   0.001097  39.5239    0.004008    0.001341       
   LBFGS   179      5    -0.023073    0.017473   0.002276  39.7133    0.005200    0.001725       
   LBFGS   180      5    -0.023266    0.019357   0.001898  39.7409    0.003806    0.001220       
   LBFGS   181      5    -0.023376    0.010840   0.001075  39.7695    0.003691    0.001049       
   LBFGS   182      5    -0.023634    0.005341   0.001068  39.8837    0.003576    0.001284       
   LBFGS   183      5    -0.024000    0.013533   0.002077  40.0770    0.004430    0.001718       
   LBFGS   184      5    -0.024384    0.019849   0.002694  40.2878    0.005629    0.001995       
   LBFGS   185      5    -0.024628    0.021552   0.002160  40.3171    0.003710    0.001220       
   LBFGS   186      5    -0.024739    0.009894   0.000988  40.3500    0.003720    0.000954       
   LBFGS   187      5    -0.024892    0.003824   0.000801  40.4378    0.003633    0.001044       
   LBFGS   188      5    -0.025118    0.011331   0.001615  40.5914    0.003774    0.001310       
   LBFGS   189      5    -0.025466    0.018679   0.002390  40.8440    0.004960    0.001618       
   LBFGS   190      5    -0.025620    0.018209   0.001792  40.8710    0.003389    0.001132       
   LBFGS   191      5    -0.025708    0.010854   0.001044  40.9001    0.003409    0.000906       
   LBFGS   192      5    -0.025887    0.004325   0.000808  41.0157    0.003498    0.000977       
   LBFGS   193      5    -0.026090    0.009310   0.001538  41.1859    0.003618    0.001277       
   LBFGS   194      5    -0.026385    0.016875   0.002207  41.4534    0.004160    0.001611       
   LBFGS   195      5    -0.026551    0.018592   0.001809  41.4857    0.003526    0.001035       

Possible intermediate minimum found at image(s): 2 
  => have a look at the .interp file.
  => it is often a good idea to divide the path calculation into smaller fragments. 

   LBFGS   196      5    -0.026634    0.009434   0.000887  41.5206    0.003386    0.000800       
   LBFGS   197      5    -0.026750    0.003923   0.000716  41.6154    0.003104    0.000862       
   LBFGS   198      5    -0.026901    0.009489   0.001426  41.7781    0.003126    0.001138       
   LBFGS   199      5    -0.027141    0.018009   0.002176  42.0719    0.004268    0.001524       
   LBFGS   200      5    -0.027271    0.015862   0.001572  42.0957    0.002707    0.001069       
   LBFGS   201      5    -0.027346    0.009987   0.000942  42.1222    0.002838    0.000804       
   LBFGS   202      5    -0.027468    0.003825   0.000665  42.2260    0.003037    0.000771       
   LBFGS   203      5    -0.027573    0.007750   0.001268  42.3776    0.003209    0.001076       
   LBFGS   204      5    -0.027729    0.014356   0.001938  42.6733    0.003597    0.001562       
   LBFGS   205      5    -0.027890    0.017058   0.001640  42.7051    0.002944    0.000988       
   LBFGS   206      5    -0.027966    0.008315   0.000788  42.7376    0.002716    0.000694       
   LBFGS   207      5    -0.028043    0.003391   0.000566  42.8189    0.002391    0.000680       
   LBFGS   208      5    -0.028106    0.007135   0.001061  42.9435    0.002299    0.000939       
   LBFGS   209      5    -0.028202    0.016918   0.001864  43.2782    0.003570    0.001559       
   LBFGS   210      5    -0.028329    0.012256   0.001272  43.2958    0.002422    0.001124       
   LBFGS   211      5    -0.028405    0.008518   0.000834  43.3156    0.002199    0.000816       
   LBFGS   212      5    -0.028510    0.003532   0.000556  43.4108    0.002477    0.000642       
   LBFGS   213      5    -0.028533    0.006066   0.001056  43.5400    0.002668    0.001045       
   LBFGS   214      5    -0.028480    0.011091   0.001624  43.8557    0.004613    0.001815       
   LBFGS   215      5    -0.028710    0.014706   0.001480  43.8883    0.002952    0.001142       
   LBFGS   216      5    -0.028816    0.006357   0.000700  43.9194    0.002005    0.000729       
   LBFGS   217      5    -0.028890    0.002922   0.000438  43.9896    0.001789    0.000561       

                                .--------------------.
          ----------------------| CI-NEB convergence |-------------------------
          Item                value                   Tolerance       Converged
          ---------------------------------------------------------------------
          RMS(Fp)             0.0004378073            0.0100000000      YES
          MAX(|Fp|)           0.0029223966            0.0200000000      YES
          RMS(FCI)            0.0005606893            0.0010000000      YES
          MAX(|FCI|)          0.0017885846            0.0020000000      YES
          ---------------------------------------------------------------------

The elastic band and climbing image have converged successfully to a MEP in 217 iterations!


                    *********************H U R R A Y*********************
                    ***        THE NEB OPTIMIZATION HAS CONVERGED     ***
                    *****************************************************



---------------------------------------------------------------
                         PATH SUMMARY              
---------------------------------------------------------------
All forces in Eh/Bohr.

Image Dist.(Ang.)    E(Eh)   dE(kcal/mol)  max(|Fp|)  RMS(Fp)
  0     0.000    -990.26184      0.00       0.05945   0.01750 <= CI
  1     2.359    -990.27731     -9.70       0.00035   0.00012
  2     4.658    -990.27913    -10.85       0.00135   0.00045
  3     6.853    -990.27831    -10.33       0.00292   0.00088
  4     8.921    -990.27222     -6.51       0.00096   0.00035
  5    10.901    -990.29073    -18.13       0.00173   0.00055
  6    13.606    -990.30210    -25.26       0.00167   0.00063
  7    16.605    -990.30251    -25.52       0.00102   0.00041
  8    19.990    -990.30429    -26.63       0.00049   0.00022
  9    23.278    -990.30545    -27.37       0.00324   0.00125

Straight line distance between images along the path:
        D( 0- 1) =   2.3593 Ang.
        D( 1- 2) =   2.2988 Ang.
        D( 2- 3) =   2.1947 Ang.
        D( 3- 4) =   2.0681 Ang.
        D( 4- 5) =   1.9802 Ang.
        D( 5- 6) =   2.7048 Ang.
        D( 6- 7) =   2.9986 Ang.
        D( 7- 8) =   3.3850 Ang.
        D( 8- 9) =   3.2887 Ang.

---------------------------------------------------------------
               INFORMATION ABOUT SADDLE POINT     
---------------------------------------------------------------

Climbing image                            ....  0 
Energy                                    ....  -990.26184189 Eh
Max. abs. force                           ....  5.9842e-02 Eh/Bohr

-----------------------------------------
  SADDLE POINT (ANGSTROEM)
-----------------------------------------
C      1.579323     0.740018    -2.258666 
N      2.701913     0.569763    -1.644474 
C      2.794255     0.574168    -0.325329 
C      1.693495     0.759032     0.463479 
C      0.473492     0.944533    -0.157235 
C      0.390657     0.938170    -1.522304 
N     -0.879092     1.131993    -2.174500 
O     -0.972250     1.130307    -3.418986 
O     -1.883122     1.301978    -1.398736 
F      1.570589     0.723684    -3.608539 
H      3.781168     0.422666     0.097457 
H      1.867815     0.744709     1.511717 
H     -0.449238     1.097423     0.320687 
C     -2.598279    -2.261660     2.934411 
H     -2.881968    -3.308461     2.793482 
H     -3.499590    -1.670584     3.118505 
H     -1.939271    -2.186786     3.803817 
S     -1.749897    -1.650953     1.465213 

-----------------------------------------
  FORCES (Eh/Bohr)
-----------------------------------------
C     -0.016296     0.002318     0.007138 
N      0.019452    -0.003400    -0.036544 
C     -0.000107    -0.000444    -0.000002 
C      0.000010     0.000086    -0.000046 
C      0.006238    -0.000955    -0.000411 
C      0.017652    -0.003080    -0.033364 
N     -0.059842     0.009618    -0.000555 
O      0.003286     0.000126     0.053862 
O      0.048194    -0.008430    -0.047020 
F      0.006814    -0.000916     0.018012 
H      0.000027     0.000125    -0.000013 
H     -0.008428     0.001562     0.016784 
H     -0.017585     0.002566     0.022421 
C     -0.000999    -0.001054     0.001485 
H     -0.001935    -0.000003     0.004226 
H     -0.000915    -0.002468     0.003688 
H     -0.003315    -0.001666     0.002641 
S      0.007668     0.006274    -0.012564 

-----------------------------------------
  UNIT TANGENT
-----------------------------------------
C     -0.104208    -0.210657     0.104349 
N     -0.079826    -0.218877     0.064446 
C     -0.029050    -0.036477     0.034965 
C      0.026947     0.152434     0.022225 
C      0.013742     0.156418     0.047260 
C     -0.045343    -0.027419     0.076786 
N     -0.062696    -0.013603     0.096776 
O     -0.104972    -0.170906     0.140820 
O      0.006241     0.152467     0.053776 
F     -0.164049    -0.396629     0.149682 
H     -0.025881    -0.043998     0.024715 
H      0.045640     0.298063     0.004869 
H      0.066365     0.298894     0.074526 
C      0.090931     0.001643    -0.193257 
H      0.051424     0.058799    -0.334248 
H      0.106180    -0.020326    -0.102312 
H      0.070259    -0.160529    -0.199368 
S      0.138297     0.180703    -0.066011 
 => Unit tangent is an approximation to the TS mode at the saddle point
No barrier was found. Skipping NEB-TS run here.
----------
STATISTICS
----------

For the individual parts of the NEB, NEB-CI or NEB-TS run:

Number of iterations:
     NEB                               ... 218  100.0%
Number of SCF / gradient calculations:
     NEB                               ... 2234  100.0%

----------
 TIMINGS
----------

For the individual parts of the NEB, NEB-CI or NEB-TS run:

Total                                  ...    62981.962 sec
NEB                                    ...    62981.962 sec  100.0%

[file orca_main/run.cpp, line 12281]: ORCA finished with error return - aborting the run
