
                                 *****************
                                 * O   R   C   A *
                                 *****************

                                            #,                                       
                                            ###                                      
                                            ####                                     
                                            #####                                    
                                            ######                                   
                                           ########,                                 
                                     ,,################,,,,,                         
                               ,,#################################,,                 
                          ,,##########################################,,             
                       ,#########################################, ''#####,          
                    ,#############################################,,   '####,        
                  ,##################################################,,,,####,       
                ,###########''''           ''''###############################       
              ,#####''   ,,,,##########,,,,          '''####'''          '####       
            ,##' ,,,,###########################,,,                        '##       
           ' ,,###''''                  '''############,,,                           
         ,,##''                                '''############,,,,        ,,,,,,###''
      ,#''                                            '''#######################'''  
     '                                                          ''''####''''         
             ,#######,   #######,   ,#######,      ##                                
            ,#'     '#,  ##    ##  ,#'     '#,    #''#        ######   ,####,        
            ##       ##  ##   ,#'  ##            #'  '#       #        #'  '#        
            ##       ##  #######   ##           ,######,      #####,   #    #        
            '#,     ,#'  ##    ##  '#,     ,#' ,#      #,         ##   #,  ,#        
             '#######'   ##     ##  '#######'  #'      '#     #####' # '####'        



                  #######################################################
                  #                        -***-                        #
                  #          Department of theory and spectroscopy      #
                  #    Directorship and core code : Frank Neese         #
                  #        Max Planck Institute fuer Kohlenforschung    #
                  #                Kaiser Wilhelm Platz 1               #
                  #                 D-45470 Muelheim/Ruhr               #
                  #                      Germany                        #
                  #                                                     #
                  #                  All rights reserved                #
                  #                        -***-                        #
                  #######################################################


                         Program Version 5.0.4 -  RELEASE  -


 With contributions from (in alphabetic order):
   Daniel Aravena         : Magnetic Suceptibility
   Michael Atanasov       : Ab Initio Ligand Field Theory (pilot matlab implementation)
   Alexander A. Auer      : GIAO ZORA, VPT2 properties, NMR spectrum
   Ute Becker             : Parallelization
   Giovanni Bistoni       : ED, misc. LED, open-shell LED, HFLD
   Martin Brehm           : Molecular dynamics
   Dmytro Bykov           : SCF Hessian
   Vijay G. Chilkuri      : MRCI spin determinant printing, contributions to CSF-ICE
   Dipayan Datta          : RHF DLPNO-CCSD density
   Achintya Kumar Dutta   : EOM-CC, STEOM-CC
   Dmitry Ganyushin       : Spin-Orbit,Spin-Spin,Magnetic field MRCI
   Miquel Garcia          : C-PCM and meta-GGA Hessian, CC/C-PCM, Gaussian charge scheme
   Yang Guo               : DLPNO-NEVPT2, F12-NEVPT2, CIM, IAO-localization
   Andreas Hansen         : Spin unrestricted coupled pair/coupled cluster methods
   Benjamin Helmich-Paris : MC-RPA, TRAH-SCF, COSX integrals
   Lee Huntington         : MR-EOM, pCC
   Robert Izsak           : Overlap fitted RIJCOSX, COSX-SCS-MP3, EOM
   Marcus Kettner         : VPT2
   Christian Kollmar      : KDIIS, OOCD, Brueckner-CCSD(T), CCSD density, CASPT2, CASPT2-K
   Simone Kossmann        : Meta GGA functionals, TD-DFT gradient, OOMP2, MP2 Hessian
   Martin Krupicka        : Initial AUTO-CI
   Lucas Lang             : DCDCAS
   Marvin Lechner         : AUTO-CI (C++ implementation), FIC-MRCC
   Dagmar Lenk            : GEPOL surface, SMD
   Dimitrios Liakos       : Extrapolation schemes; Compound Job, initial MDCI parallelization
   Dimitrios Manganas     : Further ROCIS development; embedding schemes
   Dimitrios Pantazis     : SARC Basis sets
   Anastasios Papadopoulos: AUTO-CI, single reference methods and gradients
   Taras Petrenko         : DFT Hessian,TD-DFT gradient, ASA, ECA, R-Raman, ABS, FL, XAS/XES, NRVS
   Peter Pinski           : DLPNO-MP2, DLPNO-MP2 Gradient
   Christoph Reimann      : Effective Core Potentials
   Marius Retegan         : Local ZFS, SOC
   Christoph Riplinger    : Optimizer, TS searches, QM/MM, DLPNO-CCSD(T), (RO)-DLPNO pert. Triples
   Tobias Risthaus        : Range-separated hybrids, TD-DFT gradient, RPA, STAB
   Michael Roemelt        : Original ROCIS implementation
   Masaaki Saitow         : Open-shell DLPNO-CCSD energy and density
   Barbara Sandhoefer     : DKH picture change effects
   Avijit Sen             : IP-ROCIS
   Kantharuban Sivalingam : CASSCF convergence, NEVPT2, FIC-MRCI
   Bernardo de Souza      : ESD, SOC TD-DFT
   Georgi Stoychev        : AutoAux, RI-MP2 NMR, DLPNO-MP2 response
   Willem Van den Heuvel  : Paramagnetic NMR
   Boris Wezisla          : Elementary symmetry handling
   Frank Wennmohs         : Technical directorship


 We gratefully acknowledge several colleagues who have allowed us to
 interface, adapt or use parts of their codes:
   Stefan Grimme, W. Hujo, H. Kruse, P. Pracht,  : VdW corrections, initial TS optimization,
                  C. Bannwarth, S. Ehlert          DFT functionals, gCP, sTDA/sTD-DF
   Ed Valeev, F. Pavosevic, A. Kumar             : LibInt (2-el integral package), F12 methods
   Garnet Chan, S. Sharma, J. Yang, R. Olivares  : DMRG
   Ulf Ekstrom                                   : XCFun DFT Library
   Mihaly Kallay                                 : mrcc  (arbitrary order and MRCC methods)
   Jiri Pittner, Ondrej Demel                    : Mk-CCSD
   Frank Weinhold                                : gennbo (NPA and NBO analysis)
   Christopher J. Cramer and Donald G. Truhlar   : smd solvation model
   Lars Goerigk                                  : TD-DFT with DH, B97 family of functionals
   V. Asgeirsson, H. Jonsson                     : NEB implementation
   FAccTs GmbH                                   : IRC, NEB, NEB-TS, DLPNO-Multilevel, CI-OPT
                                                   MM, QMMM, 2- and 3-layer-ONIOM, Crystal-QMMM,
                                                   LR-CPCM, SF, NACMEs, symmetry and pop. for TD-DFT,
                                                   nearIR, NL-DFT gradient (VV10), updates on ESD,
                                                   ML-optimized integration grids
   S Lehtola, MJT Oliveira, MAL Marques          : LibXC Library
   Liviu Ungur et al                             : ANISO software


 Your calculation uses the libint2 library for the computation of 2-el integrals
 For citations please refer to: http://libint.valeyev.net

 Your ORCA version has been built with support for libXC version: 5.1.0
 For citations please refer to: https://tddft.org/programs/libxc/

 This ORCA versions uses:
   CBLAS   interface :  Fast vector & matrix operations
   LAPACKE interface :  Fast linear algebra routines
   SCALAPACK package :  Parallel linear algebra routines
   Shared memory     :  Shared parallel matrices
   BLAS/LAPACK       :  OpenBLAS 0.3.15  USE64BITINT DYNAMIC_ARCH NO_AFFINITY SkylakeX SINGLE_THREADED
        Core in use  :  SkylakeX
   Copyright (c) 2011-2014, The OpenBLAS Project




***************************************
The coordinates will be read from file: reactants.xyz
***************************************


Your calculation utilizes the SMD solvation module
Please cite in your paper:
A.V. Marenich, C.J. Cramer, D.G. Truhlar J. Phys. Chem. B, 113, (2009), 6378 

XCFun DFT library Copyright 2009-2010 Ulf Ekstrom and contributors.
See http://admol.org/xcfun for more information.
This is free software; see the source code for copying conditions.
There is ABSOLUTELY NO WARRANTY; not even for MERCHANTABILITY or FITNESS FOR A PARTICULAR PURPOSE.
For details see the documentation.
Scientific users of this library should cite U. Ekstrom, L. Visscher, R. Bast, A. J. Thorvaldsen and K. Ruud;
J.Chem.Theor.Comp. 2010, DOI: 10.1021/ct100117s
XCFun Version 0.99 

================================================================================

----- Orbital basis set information -----
Your calculation utilizes the basis: 6-311++G**
   H, Li - Ne  : R. Krishnan, J. S. Binkley, R. Seeger and J. A. Pople, J. Chem. Phys. 72, 650 (1980).
   Na - Ar     : A. D. McLean and G. S. Chandler J. Chem. Phys. 72, 5639, (1980).
   K  - Ca     : J.-P. Blaudeau, M. P. McGrath, L. A. Curtiss and L. Radom, J. Chem. Phys. 107, 5016 (1997).
   Ga - Kr     : L. A. Curtiss, M. P. McGrath, J.-P. Blandeau, N. E. Davis, R. C. Binning and L. Radom, J. Chem. Phys. 103, 6104 (1995).
   Pol./Diff.
   H, Li - Cl  : T. Clark, J. Chandrasekhar and P. v. R. Schleyer, J. Comp. Chem. 4, 294 (1983).
   H - Ne      : M. J. Frisch, J. A. Pople and J. S. Binkley, J. Chem. Phys. 80, 3265 (1984).

----- AuxJ basis set information -----
Your calculation utilizes the auxiliary basis: def2/J
   F. Weigend, Phys. Chem. Chem. Phys. 8, 1057 (2006).

================================================================================
                                        WARNINGS
                       Please study these warnings very carefully!
================================================================================


WARNING: Geometry Optimization
  ===> : Switching off AutoStart
         For restart on a previous wavefunction, please use MOREAD

INFO   : the flag for use of the SHARK integral package has been found!

================================================================================
                                       INPUT FILE
================================================================================
NAME = structure_opt.inp
|  1> !wb97x 6-311++G** OPT CPCM(WATER)
|  2> %maxcore  3500
|  3> %pal
|  4> nprocs 24
|  5> end
|  6> %cpcm
|  7> smd true
|  8> SMDsolvent "water"
|  9> end
| 10> %geom
| 11> ConstrainFragments {1} end
| 12> ConstrainFragments {4} end
| 13> ConnectFragments
| 14> { 1 2 C 5 7 }
| 15> { 1 2 C 0 9 }
| 16> { 2 3 C 13 5 }
| 17> { 3 4 C 13 17 }
| 18> end
| 19> end
| 20> * XYZfile -1 1 reactants.xyz
| 21> %geom
| 22> Fragments
| 23> 1 {0:5} end
| 24> 2 {6:12} end
| 25> 3 {13:16} end
| 26> 4 {17} end
| 27> end
| 28> end
| 29> 
| 30>                          ****END OF INPUT****
================================================================================

                       *****************************
                       * Geometry Optimization Run *
                       *****************************

Geometry optimization settings:
Update method            Update   .... BFGS
Choice of coordinates    CoordSys .... Z-matrix Internals
Initial Hessian          InHess   .... Almoef's Model

Convergence Tolerances:
Energy Change            TolE     ....  5.0000e-06 Eh
Max. Gradient            TolMAXG  ....  3.0000e-04 Eh/bohr
RMS Gradient             TolRMSG  ....  1.0000e-04 Eh/bohr
Max. Displacement        TolMAXD  ....  4.0000e-03 bohr
RMS Displacement         TolRMSD  ....  2.0000e-03 bohr
Strict Convergence                ....  False
------------------------------------------------------------------------------
                        ORCA OPTIMIZATION COORDINATE SETUP
------------------------------------------------------------------------------

The optimization will be done in new redundant internal coordinates
Making redundant internal coordinates   ...  (new redundants) done
Evaluating the initial hessian          ...  (Almloef) done
Evaluating the coordinates              ...  done
Calculating the B-matrix                .... done
Calculating the G-matrix                .... done
Diagonalizing the G-matrix              .... done
Imposing constraints:
 Iter   0:  RMS(Cart)=    0.0000000000 RMS(Int)=    0.0000000000
CONVERGED
Small eigenvalue found = 1.182e-02
Small eigenvalue found = 2.221e-02
The first mode is                       ....   66
The number of degrees of freedom        ....   48
Storing new coordinates                 .... done

    -----------------------------------------------------------------
                    Redundant Internal Coordinates


    -----------------------------------------------------------------
         Definition                    Initial Value    Approx d2E/dq
    -----------------------------------------------------------------
      1. B(N   1,C   0)                  1.3611         0.622347   
      2. B(C   2,N   1)                  1.3582         0.628875   
      3. B(C   3,C   2)                  1.3949         0.613658   
      4. B(C   4,C   3)                  1.3934         0.616971   
      5. B(C   5,C   0)                  1.4122         0.575774   
      6. B(C   5,C   4)                  1.4061         0.588917   
      7. B(O   7,C   5)                  2.3435         0.016853 C 
      8. B(O   7,N   6)                  1.2480         0.844503   
      9. B(O   8,N   6)                  1.3769         0.525866   
     10. B(F   9,C   0)                  1.3500         0.602260 C 
     11. B(F   9,N   6)                  2.8678         0.002044   
     12. B(F   9,O   7)                  2.5821         0.005837   
     13. B(H  11,H  10)                  2.4818         0.000415   
     14. B(H  12,O   8)                  2.5152         0.001717   
     15. B(H  12,H  11)                  2.4663         0.000439   
     16. B(H  12,N   6)                  2.7029         0.000861   
     17. B(C  13,O   8)                  6.3675         0.000000 C 
     18. B(H  14,C  13)                  1.0936         0.355341   
     19. B(H  15,C  13)                  1.0936         0.355349   
     20. B(H  16,C  13)                  1.0942         0.354641   
     21. B(S  17,C  13)                  1.8028         0.369754 C 
     22. A(N   1,C   0,C   5)          120.1571         0.425830   
     23. A(N   1,C   0,F   9)          118.6704         0.424592 C 
     24. A(C   5,C   0,F   9)          121.1725         0.421471 C 
     25. A(C   0,N   1,C   2)          121.9524         0.429796   
     26. A(N   1,C   2,C   3)          120.0262         0.431531   
     27. A(C   2,C   3,C   4)          119.3498         0.432882   
     28. A(C   3,C   4,C   5)          120.4718         0.429694   
     29. A(C   0,C   5,O   7)           94.5313         0.237820 C 
     30. A(C   0,C   5,C   4)          118.0425         0.424407   
     31. A(C   4,C   5,O   7)          147.4261         0.238582 C 
     32. A(F   9,N   6,H  12)          110.0144         0.106848   
     33. A(O   8,N   6,H  12)           67.2752         0.152046   
     34. A(O   7,N   6,H  12)          174.2234         0.159181   
     35. A(O   7,N   6,O   8)          118.5014         0.433822   
     36. A(O   7,N   6,F   9)           64.2090         0.186619   
     37. A(N   6,O   7,F   9)           89.9947         0.212791   
     38. A(C   5,O   7,N   6)           31.7456         0.248611 C 
     39. A(C   5,O   7,F   9)           58.2491         0.140475 C 
     40. A(N   6,O   8,H  12)           82.3972         0.162696   
     41. A(H  12,O   8,C  13)          102.3727         0.090202 C 
     42. A(N   6,O   8,C  13)          107.5552         0.094051 C 
     43. A(C   0,F   9,O   7)           86.0471         0.203997 C 
     44. A(N   6,F   9,O   7)           25.7962         0.120482   
     45. A(C   0,F   9,N   6)           60.2509         0.179684 C 
     46. A(H  10,H  11,H  12)          119.7063         0.095112   
     47. A(N   6,H  12,O   8)           30.3275         0.103999   
     48. A(N   6,H  12,H  11)          126.7169         0.097913   
     49. A(O   8,H  12,H  11)          157.0445         0.099419   
     50. A(H  14,C  13,H  15)          109.0282         0.289629   
     51. A(H  14,C  13,H  16)          108.9255         0.289538   
     52. A(H  15,C  13,H  16)          109.0210         0.289539   
     53. A(O   8,C  13,H  14)          137.7378         0.093065 C 
     54. A(O   8,C  13,S  17)           29.2829         0.094076   
     55. A(O   8,C  13,H  15)           88.1594         0.093065 C 
     56. A(O   8,C  13,H  16)          100.6650         0.093063 C 
     57. A(H  14,C  13,S  17)          109.9550         0.339498 C 
     58. A(H  15,C  13,S  17)          109.9613         0.339500 C 
     59. A(H  16,C  13,S  17)          109.9238         0.339386 C 
     60. D(C   2,N   1,C   0,C   5)     -0.1041         0.028432   
     61. D(C   2,N   1,C   0,F   9)    179.9112         0.028432 C 
     62. D(C   3,C   2,N   1,C   0)      0.1066         0.025783   
     63. D(C   4,C   3,C   2,N   1)     -0.0956         0.020965   
     64. D(C   5,C   4,C   3,C   2)      0.0854         0.021202   
     65. D(O   7,C   5,C   0,F   9)     -0.0223         0.022761 C 
     66. D(O   7,C   5,C   4,C   3)   -179.9036         0.021656 C 
     67. D(O   7,C   5,C   0,N   1)    179.9933         0.022761 C 
     68. D(C   4,C   5,C   0,N   1)      0.0896         0.022761   
     69. D(C   0,C   5,C   4,C   3)     -0.0818         0.021656   
     70. D(C   4,C   5,C   0,F   9)   -179.9260         0.022761 C 
     71. D(N   6,O   7,C   5,C   4)     -0.1099         0.001517 C 
     72. D(N   6,O   7,C   5,C   0)   -179.9521         0.001517 C 
     73. D(F   9,O   7,C   5,C   4)    179.8539         0.001517 C 
     74. D(F   9,O   7,C   5,C   0)      0.0117         0.001517 C 
     75. D(F   9,O   7,N   6,O   8)    179.9932         0.079747   
     76. D(F   9,O   7,N   6,H  12)      0.1568         0.079747   
     77. D(C   5,O   7,N   6,O   8)   -179.9761         0.079747 C 
     78. D(C   5,O   7,N   6,H  12)      0.1876         0.079747 C 
     79. D(C   5,O   7,N   6,F   9)      0.0308         0.079747 C 
     80. D(C  13,O   8,N   6,O   7)     79.3857         0.027866 C 
     81. D(C  13,O   8,N   6,H  12)   -100.6321         0.027866 C 
     82. D(H  12,O   8,N   6,O   7)   -179.9821         0.027866   
     83. D(N   6,F   9,O   7,C   5)     -0.0190         0.001503 C 
     84. D(N   6,F   9,C   0,N   1)   -179.9918         0.032536 C 
     85. D(N   6,F   9,C   0,C   5)      0.0236         0.032536 C 
     86. D(O   7,F   9,N   6,H  12)   -179.9832         0.001500   
     87. D(C   0,F   9,N   6,O   7)   -179.9922         0.001500 C 
     88. D(C   0,F   9,N   6,H  12)      0.0246         0.001500 C 
     89. D(O   7,F   9,C   0,C   5)      0.0202         0.032536 C 
     90. D(O   7,F   9,C   0,N   1)   -179.9952         0.032536 C 
     91. D(C   0,F   9,O   7,N   6)      0.0068         0.001503 C 
     92. D(C   0,F   9,O   7,C   5)     -0.0123         0.001503 C 
     93. D(O   7,F   9,O   8,H  12)   -179.9897         0.001500   
     94. D(O   7,F   9,O   8,C  13)     79.9542         0.001500 C 
     95. D(C   0,F   9,O   8,H  12)      0.0232         0.001500 C 
     96. D(C   0,F   9,O   8,C  13)   -100.0329         0.001500   
     97. D(O   8,H  12,H  11,H  10)      0.0710         0.001502   
     98. D(O   8,H  12,N   6,F   9)    179.9943         0.001501   
     99. D(H  11,H  12,N   6,O   7)     -0.1748         0.001501   
    100. D(H  11,H  12,N   6,O   8)    179.9811         0.001501   
    101. D(H  11,H  12,N   6,F   9)     -0.0245         0.001501   
    102. D(N   6,H  12,O   8,C  13)    106.3948         0.001502 C 
    103. D(H  11,H  12,O   8,N   6)     -0.0388         0.001502   
    104. D(H  11,H  12,O   8,C  13)    106.3560         0.001502 C 
    105. D(O   8,H  12,N   6,O   7)    179.8441         0.001501   
    106. D(N   6,H  12,H  11,H  10)      0.0466         0.001502   
    107. D(S  17,C  13,O   8,H  12)    -89.2525         0.001500   
    108. D(H  14,C  13,O   8,H  12)   -111.6090         0.001500 C 
    109. D(H  15,C  13,O   8,N   6)   -142.4992         0.001500 C 
    110. D(H  15,C  13,O   8,H  12)    131.6681         0.001500 C 
    111. D(H  16,C  13,O   8,N   6)    108.4890         0.001500 C 
    112. D(H  16,C  13,O   8,H  12)     22.6563         0.001500 C 
    113. D(H  14,C  13,O   8,N   6)    -25.7763         0.001500 C 
    114. D(S  17,C  13,O   8,N   6)     -3.4198         0.001500   
    -----------------------------------------------------------------

Number of atoms                         .... 18
Number of degrees of freedom            .... 114

         *************************************************************
         *                GEOMETRY OPTIMIZATION CYCLE   1            *
         *************************************************************
---------------------------------
CARTESIAN COORDINATES (ANGSTROEM)
---------------------------------
  C      0.000000    0.000000    1.820000
  N      1.178000   -0.196000    2.473000
  C      1.255000   -0.207000    3.829000
  C      0.105000   -0.016000    4.595000
  C     -1.116000    0.187000    3.955000
  C     -1.192000    0.198000    2.551000
  N     -2.456000    0.409000    1.893000
  O     -2.541000    0.423000    0.648000
  O     -3.602000    0.600000    2.632000
  F      0.000000    0.000000    0.470000
  H      2.209000   -0.366000    4.313000
  H      0.163000   -0.026000    5.676000
  H     -2.005000    0.335000    4.557000
  C     -6.773000   -4.921000    2.720000
  H     -6.859000   -5.815000    2.096000
  H     -7.702000   -4.348000    2.652000
  H     -6.618000   -5.227000    3.759000
  S     -5.386000   -3.913000    2.163000

----------------------------
CARTESIAN COORDINATES (A.U.)
----------------------------
  NO LB      ZA    FRAG     MASS         X           Y           Z
   0 C     6.0000    1    12.011    0.000000    0.000000    3.439302
   1 N     7.0000    1    14.007    2.226097   -0.370386    4.673293
   2 C     6.0000    1    12.011    2.371606   -0.391173    7.235761
   3 C     6.0000    1    12.011    0.198421   -0.030236    8.683292
   4 C     6.0000    1    12.011   -2.108934    0.353379    7.473867
   5 C     6.0000    1    12.011   -2.252554    0.374166    4.820691
   6 N     7.0000    2    14.007   -4.641167    0.772898    3.577252
   7 O     8.0000    2    15.999   -4.801794    0.799354    1.224543
   8 O     8.0000    2    15.999   -6.806794    1.133836    4.973759
   9 F     9.0000    2    18.998    0.000000    0.000000    0.888171
  10 H     1.0000    2     1.008    4.174405   -0.691640    8.150389
  11 H     1.0000    2     1.008    0.308025   -0.049133   10.726086
  12 H     1.0000    2     1.008   -3.788901    0.633058    8.611482
  13 C     6.0000    3    12.011  -12.799115   -9.299342    5.140055
  14 H     1.0000    3     1.008  -12.961632  -10.988757    3.960866
  15 H     1.0000    3     1.008  -14.554671   -8.216529    5.011554
  16 H     1.0000    3     1.008  -12.506208   -9.877599    7.103481
  17 S    16.0000    4    32.060  -10.178065   -7.394498    4.087478

----------------------------------------------
CARTESIAN COORDINATES OF FRAGMENTS (ANGSTROEM)
----------------------------------------------

 FRAGMENT 1 
  C     0.000000    0.000000    1.820000
  N     1.178000   -0.196000    2.473000
  C     1.255000   -0.207000    3.829000
  C     0.105000   -0.016000    4.595000
  C    -1.116000    0.187000    3.955000
  C    -1.192000    0.198000    2.551000

 FRAGMENT 2 
  N    -2.456000    0.409000    1.893000
  O    -2.541000    0.423000    0.648000
  O    -3.602000    0.600000    2.632000
  F     0.000000    0.000000    0.470000
  H     2.209000   -0.366000    4.313000
  H     0.163000   -0.026000    5.676000
  H    -2.005000    0.335000    4.557000

 FRAGMENT 3 
  C    -6.773000   -4.921000    2.720000
  H    -6.859000   -5.815000    2.096000
  H    -7.702000   -4.348000    2.652000
  H    -6.618000   -5.227000    3.759000

 FRAGMENT 4 
  S    -5.386000   -3.913000    2.163000

--------------------------------
INTERNAL COORDINATES (ANGSTROEM)
--------------------------------
 C      0   0   0     0.000000000000     0.00000000     0.00000000
 N      1   0   0     1.361069065110     0.00000000     0.00000000
 C      2   1   0     1.358228993948   121.95243626     0.00000000
 C      3   2   1     1.394896770374   120.02620694     0.10655554
 C      4   3   2     1.393431017309   119.34983770   359.90435571
 C      5   4   3     1.406098502951   120.47178172     0.08537773
 N      6   5   4     1.440548853736   120.30882193   180.03842131
 O      7   6   5     1.247976762604   121.13704526   179.93147861
 O      7   6   5     1.376923382037   120.36156660   359.90709941
 F      1   2   3     1.350000000000   118.67037638   179.91115691
 H      3   2   1     1.081504969938   119.86701156   179.98746005
 H      4   3   2     1.082601034546   120.19197482   179.89186186
 H      5   4   3     1.083803026384   118.91636700   180.02085854
 C      9   7   6     6.367450510212   107.55517832   259.40946816
 H     14   9   7     1.093621506738   137.73775494   334.22373001
 H     14   9   7     1.093615105967    88.15943276   217.50075332
 H     14   9   7     1.094158123856   100.66496867   108.48897332
 S     14   9   7     1.802798380297    29.28288431   356.58019681

---------------------------
INTERNAL COORDINATES (A.U.)
---------------------------
 C      0   0   0     0.000000000000     0.00000000     0.00000000
 N      1   0   0     2.572047782411     0.00000000     0.00000000
 C      2   1   0     2.566680825712   121.95243626     0.00000000
 C      3   2   1     2.635972881098   120.02620694     0.10655554
 C      4   3   2     2.633203009226   119.34983770   359.90435571
 C      5   4   3     2.657141087893   120.47178172     0.08537773
 N      6   5   4     2.722242816095   120.30882193   180.03842131
 O      7   6   5     2.358334302820   121.13704526   179.93147861
 O      7   6   5     2.602008099442   120.36156660   359.90709941
 F      1   2   3     2.551130280794   118.67037638   179.91115691
 H      3   2   1     2.043748205657   119.86701156   179.98746005
 H      4   3   2     2.045819467592   120.19197482   179.89186186
 H      5   4   3     2.048090902982   118.91636700   180.02085854
 C      9   7   6    12.032737635598   107.55517832   259.40946816
 H     14   9   7     2.066645141901   137.73775494   334.22373001
 H     14   9   7     2.066633046198    88.15943276   217.50075332
 H     14   9   7     2.067659201293   100.66496867   108.48897332
 S     14   9   7     3.406795213437    29.28288431   356.58019681

---------------------
BASIS SET INFORMATION
---------------------
There are 6 groups of distinct atoms

 Group   1 Type C   : 12s6p1d contracted to 5s4p1d pattern {63111/3111/1}
 Group   2 Type N   : 12s6p1d contracted to 5s4p1d pattern {63111/3111/1}
 Group   3 Type O   : 12s6p1d contracted to 5s4p1d pattern {63111/3111/1}
 Group   4 Type F   : 12s6p1d contracted to 5s4p1d pattern {63111/3111/1}
 Group   5 Type H   : 6s1p contracted to 4s1p pattern {3111/1}
 Group   6 Type S   : 14s10p1d contracted to 7s6p1d pattern {6311111/421111/1}

Atom   0C    basis set group =>   1
Atom   1N    basis set group =>   2
Atom   2C    basis set group =>   1
Atom   3C    basis set group =>   1
Atom   4C    basis set group =>   1
Atom   5C    basis set group =>   1
Atom   6N    basis set group =>   2
Atom   7O    basis set group =>   3
Atom   8O    basis set group =>   3
Atom   9F    basis set group =>   4
Atom  10H    basis set group =>   5
Atom  11H    basis set group =>   5
Atom  12H    basis set group =>   5
Atom  13C    basis set group =>   1
Atom  14H    basis set group =>   5
Atom  15H    basis set group =>   5
Atom  16H    basis set group =>   5
Atom  17S    basis set group =>   6
---------------------------------
AUXILIARY/J BASIS SET INFORMATION
---------------------------------
There are 6 groups of distinct atoms

 Group   1 Type C   : 12s5p4d2f1g contracted to 6s4p3d1f1g pattern {711111/2111/211/2/1}
 Group   2 Type N   : 12s5p4d2f1g contracted to 6s4p3d1f1g pattern {711111/2111/211/2/1}
 Group   3 Type O   : 12s5p4d2f1g contracted to 6s4p3d1f1g pattern {711111/2111/211/2/1}
 Group   4 Type F   : 12s5p4d2f1g contracted to 6s4p3d1f1g pattern {711111/2111/211/2/1}
 Group   5 Type H   : 5s2p1d contracted to 3s1p1d pattern {311/2/1}
 Group   6 Type S   : 14s5p5d2f1g contracted to 8s4p3d1f1g pattern {71111111/2111/311/2/1}

Atom   0C    basis set group =>   1
Atom   1N    basis set group =>   2
Atom   2C    basis set group =>   1
Atom   3C    basis set group =>   1
Atom   4C    basis set group =>   1
Atom   5C    basis set group =>   1
Atom   6N    basis set group =>   2
Atom   7O    basis set group =>   3
Atom   8O    basis set group =>   3
Atom   9F    basis set group =>   4
Atom  10H    basis set group =>   5
Atom  11H    basis set group =>   5
Atom  12H    basis set group =>   5
Atom  13C    basis set group =>   1
Atom  14H    basis set group =>   5
Atom  15H    basis set group =>   5
Atom  16H    basis set group =>   5
Atom  17S    basis set group =>   6


           ************************************************************
           *        Program running with 24 parallel MPI-processes    *
           *              working on a common directory               *
           ************************************************************
------------------------------------------------------------------------------
                           ORCA GTO INTEGRAL CALCULATION
                           -- RI-GTO INTEGRALS CHOSEN --
------------------------------------------------------------------------------
------------------------------------------------------------------------------
                   ___                                                        
                  /   \      - P O W E R E D   B Y -                         
                 /     \                                                     
                 |  |  |   _    _      __       _____    __    __             
                 |  |  |  | |  | |    /  \     |  _  \  |  |  /  |          
                  \  \/   | |  | |   /    \    | | | |  |  | /  /          
                 / \  \   | |__| |  /  /\  \   | |_| |  |  |/  /          
                |  |  |   |  __  | /  /__\  \  |    /   |      \           
                |  |  |   | |  | | |   __   |  |    \   |  |\   \          
                \     /   | |  | | |  |  |  |  | |\  \  |  | \   \       
                 \___/    |_|  |_| |__|  |__|  |_| \__\ |__|  \__/        
                                                                              
                      - O R C A' S   B I G   F R I E N D -                    
                                      &                                       
                       - I N T E G R A L  F E E D E R -                       
                                                                              
 v1 FN, 2020, v2 2021                                                         
------------------------------------------------------------------------------


Reading SHARK input file structure_opt.SHARKINP.tmp ... ok
----------------------
SHARK INTEGRAL PACKAGE
----------------------

Number of atoms                             ...     18
Number of basis functions                   ...    314
Number of shells                            ...    154
Maximum angular momentum                    ...      2
Integral batch strategy                     ... SHARK/LIBINT Hybrid
RI-J (if used) integral strategy            ... SPLIT-RIJ (Revised 2003 algorithm where possible)
Printlevel                                  ...      1
Contraction scheme used                     ... SEGMENTED contraction
Coulomb Range Separation                    ... NOT USED
Exchange Range Separation                   ... Long Range
   Mu parameter                             ...  0.300000
   Scaling (regular/separated)              ...  0.157706  0.842294
Finite Nucleus Model                        ... NOT USED
Auxiliary Coulomb fitting basis             ... AVAILABLE
   # of basis functions in Aux-J            ...    656
   # of shells in Aux-J                     ...    212
   Maximum angular momentum in Aux-J        ...      4
Auxiliary J/K fitting basis                 ... NOT available
Auxiliary Correlation fitting basis         ... NOT available
Auxiliary 'external' fitting basis          ... NOT available
Integral threshold                          ...     2.500000e-11
Primitive cut-off                           ...     2.500000e-12
Primitive pair pre-selection threshold      ...     2.500000e-12

Calculating pre-screening integrals         ... done (  0.0 sec) Dimension = 154
Organizing shell pair data                  ... done (  0.1 sec)
Shell pair information
Total number of shell pairs                 ...     11935
Shell pairs after pre-screening             ...      9106
Total number of primitive shell pairs       ...     38500
Primitive shell pairs kept                  ...     20787
          la=0 lb=0:   2800 shell pairs
          la=1 lb=0:   3739 shell pairs
          la=1 lb=1:   1292 shell pairs
          la=2 lb=0:    727 shell pairs
          la=2 lb=1:    496 shell pairs
          la=2 lb=2:     52 shell pairs

Calculating one electron integrals          ... done (  0.0 sec)
Calculating RI/J V-Matrix + Cholesky decomp.... done (  0.2 sec)
Calculating Nuclear repulsion               ... done (  0.0 sec) ENN=    691.733799221830 Eh

SHARK setup successfully completed in   1.0 seconds

Maximum memory used throughout the entire GTOINT-calculation: 17.8 MB


           ************************************************************
           *        Program running with 24 parallel MPI-processes    *
           *              working on a common directory               *
           ************************************************************
-------------------------------------------------------------------------------
                                 ORCA SCF
-------------------------------------------------------------------------------

------------
SCF SETTINGS
------------
Hamiltonian:
 Density Functional     Method          .... DFT(GTOs)
 Exchange Functional    Exchange        .... WB97X
 Correlation Functional Correlation     .... WB97X
 Gradients option       PostSCFGGA      .... off
 Hybrid DFT is turned on
   Fraction HF Exchange ScalHFX         ....  0.157706
   Scaling of DF-GGA-X  ScalDFX         ....  0.000000
   Scaling of DF-GGA-C  ScalDFC         ....  1.000000
   Scaling of DF-LDA-C  ScalLDAC        ....  1.000000
   Perturbative correction              ....  0.000000
   Density functional embedding theory  .... OFF
 Long-range corrected/Screened/Range-Separated Hybrid DFT is turned on
   Amount of maximum screened exact exchange              ....  0.842294
   Range separation parameter mu (erf(mu*r12)/r12)        ....  0.300000
 RI-approximation to the Coulomb term is turned on
   Number of AuxJ basis functions       .... 656
   RIJ-COSX (HFX calculated with COS-X)).... on


General Settings:
 Integral files         IntName         .... structure_opt
 Hartree-Fock type      HFTyp           .... RHF
 Total Charge           Charge          ....   -1
 Multiplicity           Mult            ....    1
 Number of Electrons    NEL             ....   98
 Basis Dimension        Dim             ....  314
 Nuclear Repulsion      ENuc            ....    691.7337992218 Eh

Convergence Acceleration:
 DIIS                   CNVDIIS         .... on
   Start iteration      DIISMaxIt       ....    12
   Startup error        DIISStart       ....  0.200000
   # of expansion vecs  DIISMaxEq       ....     5
   Bias factor          DIISBfac        ....   1.050
   Max. coefficient     DIISMaxC        ....  10.000
 Trust-Rad. Augm. Hess. CNVTRAH         .... auto
   Auto Start mean grad. ratio tolernc. ....  1.125000
   Auto Start start iteration           ....    20
   Auto Start num. interpolation iter.  ....    10
   Max. Number of Micro iterations      ....    16
   Max. Number of Macro iterations      .... Maxiter - #DIIS iter
   Number of Davidson start vectors     ....     2
   Converg. threshold I  (grad. norm)   ....   1.000e-05
   Converg. threshold II (energy diff.) ....   1.000e-08
   Grad. Scal. Fac. for Micro threshold ....   0.100
   Minimum threshold for Micro iter.    ....   0.010
   NR start threshold (gradient norm)   ....   0.001
   Initial trust radius                 ....   0.400
   Minimum AH scaling param. (alpha)    ....   1.000
   Maximum AH scaling param. (alpha)    .... 1000.000
   Orbital update algorithm             .... Taylor
   White noise on init. David. guess    .... on
   Maximum white noise                  ....   0.010
   Quad. conv. algorithm                .... NR
 SOSCF                  CNVSOSCF        .... on
   Start iteration      SOSCFMaxIt      ....   150
   Startup grad/error   SOSCFStart      ....  0.003300
 Level Shifting         CNVShift        .... on
   Level shift para.    LevelShift      ....    0.2500
   Turn off err/grad.   ShiftErr        ....    0.0010
 Zerner damping         CNVZerner       .... off
 Static damping         CNVDamp         .... on
   Fraction old density DampFac         ....    0.7000
   Max. Damping (<1)    DampMax         ....    0.9800
   Min. Damping (>=0)   DampMin         ....    0.0000
   Turn off err/grad.   DampErr         ....    0.1000
 Fernandez-Rico         CNVRico         .... off

SCF Procedure:
 Maximum # iterations   MaxIter         ....   125
 SCF integral mode      SCFMode         .... Direct
   Integral package                     .... SHARK and LIBINT hybrid scheme
 Reset frequency        DirectResetFreq ....    20
 Integral Threshold     Thresh          ....  2.500e-11 Eh
 Primitive CutOff       TCut            ....  2.500e-12 Eh

Convergence Tolerance:
 Convergence Check Mode ConvCheckMode   .... Total+1el-Energy
 Convergence forced     ConvForced      .... 0
 Energy Change          TolE            ....  1.000e-08 Eh
 1-El. energy change                    ....  1.000e-05 Eh
 Orbital Gradient       TolG            ....  1.000e-05
 Orbital Rotation angle TolX            ....  1.000e-05
 DIIS Error             TolErr          ....  5.000e-07


Diagonalization of the overlap matrix:
Smallest eigenvalue                        ... 4.130e-06
Time for diagonalization                   ...    0.015 sec
Threshold for overlap eigenvalues          ... 1.000e-08
Number of eigenvalues below threshold      ... 0
Time for construction of square roots      ...    0.035 sec
Total time needed                          ...    0.052 sec

Time for model grid setup =    0.239 sec

------------------------------
INITIAL GUESS: MODEL POTENTIAL
------------------------------
Loading Hartree-Fock densities                     ... done
Calculating cut-offs                               ... done
Initializing the effective Hamiltonian             ... done
Setting up the integral package (SHARK)            ... done
Starting the Coulomb interaction                   ... done (   0.1 sec)
Reading the grid                                   ... done
Mapping shells                                     ... done
Starting the XC term evaluation                    ... done (   0.0 sec)
  promolecular density results
     # of electrons  =     96.995246792
     EX              =    -96.552357863
     EC              =     -3.327212364
     EX+EC           =    -99.879570227
Transforming the Hamiltonian                       ... done (   0.0 sec)
Diagonalizing the Hamiltonian                      ... done (   0.0 sec)
Back transforming the eigenvectors                 ... done (   0.0 sec)
Now organizing SCF variables                       ... done
                      ------------------
                      INITIAL GUESS DONE (   0.4 sec)
                      ------------------
-------------------
DFT GRID GENERATION
-------------------

General Integration Accuracy     IntAcc      ... 4.388
Radial Grid Type                 RadialGrid  ... OptM3 with GC (2021)
Angular Grid (max. ang.)         AngularGrid ... 4 (Lebedev-302)
Angular grid pruning method      GridPruning ... 4 (adaptive)
Weight generation scheme         WeightScheme... Becke
Basis function cutoff            BFCut       ... 1.0000e-11
Integration weight cutoff        WCut        ... 1.0000e-14
Angular grids for H and He will be reduced by one unit
Partially contracted basis set               ... off
Rotationally invariant grid construction     ... off

Total number of grid points                  ...    98118
Total number of batches                      ...     1542
Average number of points per batch           ...       63
Average number of grid points per atom       ...     5451
Time for grid setup =    0.679 sec

--------------------
COSX GRID GENERATION
--------------------

GRIDX 1
-------
General Integration Accuracy     IntAcc      ... 3.816
Radial Grid Type                 RadialGrid  ... OptM3 with GC (2021)
Angular Grid (max. ang.)         AngularGrid ... 1 (Lebedev-50)
Angular grid pruning method      GridPruning ... 4 (adaptive)
Weight generation scheme         WeightScheme... Becke
Basis function cutoff            BFCut       ... 1.0000e-11
Integration weight cutoff        WCut        ... 1.0000e-14
Angular grids for H and He will be reduced by one unit
Partially contracted basis set               ... on
Rotationally invariant grid construction     ... off

Total number of grid points                  ...    12261
Total number of batches                      ...      203
Average number of points per batch           ...       60
Average number of grid points per atom       ...      681
UseSFitting                                  ... on

GRIDX 2
-------
General Integration Accuracy     IntAcc      ... 4.020
Radial Grid Type                 RadialGrid  ... OptM3 with GC (2021)
Angular Grid (max. ang.)         AngularGrid ... 2 (Lebedev-110)
Angular grid pruning method      GridPruning ... 4 (adaptive)
Weight generation scheme         WeightScheme... Becke
Basis function cutoff            BFCut       ... 1.0000e-11
Integration weight cutoff        WCut        ... 1.0000e-14
Angular grids for H and He will be reduced by one unit
Partially contracted basis set               ... on
Rotationally invariant grid construction     ... off

Total number of grid points                  ...    31061
Total number of batches                      ...      494
Average number of points per batch           ...       62
Average number of grid points per atom       ...     1726
UseSFitting                                  ... on

GRIDX 3
-------
General Integration Accuracy     IntAcc      ... 4.338
Radial Grid Type                 RadialGrid  ... OptM3 with GC (2021)
Angular Grid (max. ang.)         AngularGrid ... 3 (Lebedev-194)
Angular grid pruning method      GridPruning ... 4 (adaptive)
Weight generation scheme         WeightScheme... Becke
Basis function cutoff            BFCut       ... 1.0000e-11
Integration weight cutoff        WCut        ... 1.0000e-14
Angular grids for H and He will be reduced by one unit
Partially contracted basis set               ... on
Rotationally invariant grid construction     ... off

Total number of grid points                  ...    69055
Total number of batches                      ...     1089
Average number of points per batch           ...       63
Average number of grid points per atom       ...     3836
UseSFitting                                  ... on

Time for X-Grid setup             =    1.337 sec


--------------------
CPCM SOLVATION MODEL
--------------------
CPCM parameters:
  Epsilon                                         ...      78.3550
  Refrac                                          ...       1.3328
  Rsolv                                           ...       1.3000
  Surface type                                    ... GAUSSIAN VDW
  Epsilon function type                           ...         CPCM
Solvent:                                     ... WATER
SMD-CDS solvent descriptors:
  Soln                                       ...    1.3328
  Soln25                                     ...    1.3323
  Sola                                       ...    0.0000
  Solb                                       ...    0.0000
  Solg                                       ...    0.0000
  Solc                                       ...    0.0000
  Solh                                       ...    0.0000
Radii:
 Radius for C  used is    3.4960 Bohr (=   1.8500 Ang.)
 Radius for N  used is    3.5716 Bohr (=   1.8900 Ang.)
 Radius for O  used is    2.8724 Bohr (=   1.5200 Ang.)
 Radius for F  used is    3.2692 Bohr (=   1.7300 Ang.)
 Radius for H  used is    2.2677 Bohr (=   1.2000 Ang.)
 Radius for S  used is    4.7054 Bohr (=   2.4900 Ang.)
Calculating surface                               ...        done! (  0.0s)
GEPOL surface points                              ...         1154
GEPOL Volume                                      ...    1378.6552
GEPOL Surface-area                                ...     851.4449
Calculating surface distance matrix               ...        done! (  0.0s)
Performing Cholesky decomposition & store         ...        done! (  0.1s)
Overall time for CPCM initialization              ...                 0.1s
--------------
SCF ITERATIONS
--------------
ITER       Energy         Delta-E        Max-DP      RMS-DP      [F,P]     Damp
               ***  Starting incremental Fock matrix formation  ***
  0   -989.8662493894   0.000000000000 0.33926912  0.00315830  0.2372941 0.7000
  1   -990.0284374443  -0.162188054949 0.39233063  0.00305871  0.1151257 0.7000
                               ***Turning on DIIS***
  2   -990.1008733646  -0.072435920315 2.00944711  0.01143062  0.0594566 0.0000
  3   -990.2249261039  -0.124052739298 0.80539260  0.00427471  0.0549947 0.0000
  4   -990.2440753377  -0.019149233772 0.29046173  0.00159907  0.0124552 0.0000
  5   -990.2452518501  -0.001176512379 0.15379506  0.00085730  0.0061774 0.0000
                      *** Initiating the SOSCF procedure ***
                           *** Shutting down DIIS ***
                      *** Re-Reading the Fockian *** 
                      *** Removing any level shift *** 
ITER      Energy       Delta-E        Grad      Rot      Max-DP    RMS-DP
  6   -990.24548368  -0.0002318340  0.001492  0.001492  0.045932  0.000285
               *** Restarting incremental Fock matrix formation ***
  7   -990.24556584  -0.0000821538  0.000976  0.002395  0.026652  0.000195
  8   -990.24560445  -0.0000386142  0.000340  0.002518  0.016513  0.000173
  9   -990.24561031  -0.0000058544  0.000678  0.000704  0.008509  0.000086
 10   -990.24561712  -0.0000068109  0.000109  0.000182  0.006503  0.000036
 11   -990.24561719  -0.0000000775  0.000092  0.000126  0.004060  0.000022
 12   -990.24561755  -0.0000003509  0.000015  0.000041  0.004597  0.000030
 13   -990.24561755  -0.0000000045  0.000006  0.000032  0.012286  0.000075
 14   -990.24561755  -0.0000000019  0.000005  0.000012  0.005418  0.000042
                  ***Gradient check signals convergence***
              ***Rediagonalizing the Fockian in SOSCF/NRSCF***

               *****************************************************
               *                     SUCCESS                       *
               *           SCF CONVERGED AFTER  15 CYCLES          *
               *****************************************************

Old exchange energy                            =    -28.432441939 Eh
New exchange energy                            =    -28.432435823 Eh
Exchange energy change after final integration =      0.000006116 Eh
Total energy after final integration           =   -990.245611437 Eh
Final COS-X integration done in                =     3.633 sec

SMD CDS free energy correction energy :                 5.87295     Kcal/mol
Total Energy after SMD CDS correction =              -990.236252299 Eh

----------------
TOTAL SCF ENERGY
----------------

Total Energy       :         -990.23625230 Eh          -26945.69832 eV

Components:
Nuclear Repulsion  :          691.73379922 Eh           18823.03362 eV
Electronic Energy  :        -1681.97005152 Eh          -45768.73194 eV
One Electron Energy:        -2743.73670332 Eh          -74660.87138 eV
Two Electron Energy:         1061.76665180 Eh           28892.13944 eV
Max COSX asymmetry :            0.00000167 Eh               0.00005 eV
CPCM Dielectric    :           -0.13893098 Eh              -3.78050 eV
SMD CDS (Gcds)     :            0.00935914 Eh               0.25468 eV

Virial components:
Potential Energy   :        -1977.46601940 Eh          -53809.58601 eV
Kinetic Energy     :          987.22976710 Eh           26863.88770 eV
Virial Ratio       :            2.00304538


DFT components:
N(Alpha)           :       49.000042198927 electrons
N(Beta)            :       49.000042198927 electrons
N(Total)           :       98.000084397854 electrons
E(XC)              :      -73.337901776803 Eh       
DFET-embed. en.    :        0.000000000000 Eh       
CPCM Solvation Model Properties:
Surface-charge          :            0.94826374
Charge-correction       :           -0.00578095 Eh              -0.15731 eV
Free-energy (cav+disp)  :            0.00935914 Eh               0.25468 eV

---------------
SCF CONVERGENCE
---------------

  Last Energy change         ...   -8.4049e-10  Tolerance :   1.0000e-08
  Last MAX-Density change    ...    1.7764e-15  Tolerance :   1.0000e-07
  Last RMS-Density change    ...    3.3927e-17  Tolerance :   5.0000e-09
  Last Orbital Gradient      ...    1.9427e-06  Tolerance :   1.0000e-05
  Last Orbital Rotation      ...    1.6381e-06  Tolerance :   1.0000e-05

             **** THE GBW FILE WAS UPDATED (structure_opt.gbw) ****
             **** DENSITY structure_opt.scfp WAS UPDATED ****
             **** ENERGY FILE WAS UPDATED (structure_opt.en.tmp) ****
             **** THE GBW FILE WAS UPDATED (structure_opt.gbw) ****
             **** DENSITY structure_opt.scfp WAS UPDATED ****
----------------
ORBITAL ENERGIES
----------------

  NO   OCC          E(Eh)            E(eV) 
   0   2.0000     -88.720356     -2414.2036 
   1   2.0000     -24.793295      -674.6599 
   2   2.0000     -19.275425      -524.5110 
   3   2.0000     -19.243845      -523.6516 
   4   2.0000     -14.669604      -399.1802 
   5   2.0000     -14.435529      -392.8107 
   6   2.0000     -10.437613      -284.0219 
   7   2.0000     -10.364042      -282.0199 
   8   2.0000     -10.338156      -281.3155 
   9   2.0000     -10.321061      -280.8503 
  10   2.0000     -10.290428      -280.0168 
  11   2.0000     -10.236144      -278.5396 
  12   2.0000      -7.916213      -215.4111 
  13   2.0000      -5.879395      -159.9865 
  14   2.0000      -5.871975      -159.7846 
  15   2.0000      -5.871935      -159.7835 
  16   2.0000      -1.396328       -37.9960 
  17   2.0000      -1.348011       -36.6812 
  18   2.0000      -1.151286       -31.3281 
  19   2.0000      -1.109216       -30.1833 
  20   2.0000      -1.008270       -27.4364 
  21   2.0000      -0.943323       -25.6691 
  22   2.0000      -0.873891       -23.7798 
  23   2.0000      -0.836321       -22.7575 
  24   2.0000      -0.796575       -21.6759 
  25   2.0000      -0.769097       -20.9282 
  26   2.0000      -0.705902       -19.2086 
  27   2.0000      -0.686434       -18.6788 
  28   2.0000      -0.669269       -18.2117 
  29   2.0000      -0.665227       -18.1018 
  30   2.0000      -0.661539       -18.0014 
  31   2.0000      -0.633122       -17.2281 
  32   2.0000      -0.620305       -16.8794 
  33   2.0000      -0.615175       -16.7398 
  34   2.0000      -0.563752       -15.3405 
  35   2.0000      -0.537023       -14.6131 
  36   2.0000      -0.527892       -14.3647 
  37   2.0000      -0.527861       -14.3638 
  38   2.0000      -0.494503       -13.4561 
  39   2.0000      -0.494242       -13.4490 
  40   2.0000      -0.455914       -12.4060 
  41   2.0000      -0.432308       -11.7637 
  42   2.0000      -0.421459       -11.4685 
  43   2.0000      -0.416349       -11.3294 
  44   2.0000      -0.408014       -11.1026 
  45   2.0000      -0.390893       -10.6367 
  46   2.0000      -0.384855       -10.4724 
  47   2.0000      -0.259033        -7.0486 
  48   2.0000      -0.259006        -7.0479 
  49   0.0000      -0.064728        -1.7613 
  50   0.0000       0.022721         0.6183 
  51   0.0000       0.051641         1.4052 
  52   0.0000       0.055464         1.5093 
  53   0.0000       0.059473         1.6183 
  54   0.0000       0.069439         1.8895 
  55   0.0000       0.075160         2.0452 
  56   0.0000       0.086609         2.3568 
  57   0.0000       0.090308         2.4574 
  58   0.0000       0.094973         2.5843 
  59   0.0000       0.099149         2.6980 
  60   0.0000       0.113161         3.0793 
  61   0.0000       0.117966         3.2100 
  62   0.0000       0.128069         3.4849 
  63   0.0000       0.131039         3.5657 
  64   0.0000       0.135689         3.6923 
  65   0.0000       0.143065         3.8930 
  66   0.0000       0.148358         4.0370 
  67   0.0000       0.156558         4.2602 
  68   0.0000       0.163381         4.4458 
  69   0.0000       0.167796         4.5660 
  70   0.0000       0.170170         4.6306 
  71   0.0000       0.173165         4.7121 
  72   0.0000       0.177208         4.8221 
  73   0.0000       0.180514         4.9120 
  74   0.0000       0.182943         4.9781 
  75   0.0000       0.189348         5.1524 
  76   0.0000       0.193500         5.2654 
  77   0.0000       0.196149         5.3375 
  78   0.0000       0.199602         5.4314 
  79   0.0000       0.209815         5.7093 
  80   0.0000       0.213067         5.7978 
  81   0.0000       0.221477         6.0267 
  82   0.0000       0.223699         6.0872 
  83   0.0000       0.231920         6.3109 
  84   0.0000       0.236748         6.4422 
  85   0.0000       0.239874         6.5273 
  86   0.0000       0.251508         6.8439 
  87   0.0000       0.258271         7.0279 
  88   0.0000       0.267942         7.2911 
  89   0.0000       0.271059         7.3759 
  90   0.0000       0.274665         7.4740 
  91   0.0000       0.278207         7.5704 
  92   0.0000       0.279180         7.5969 
  93   0.0000       0.285802         7.7771 
  94   0.0000       0.290871         7.9150 
  95   0.0000       0.298903         8.1336 
  96   0.0000       0.303166         8.2496 
  97   0.0000       0.309752         8.4288 
  98   0.0000       0.317269         8.6333 
  99   0.0000       0.324164         8.8210 
 100   0.0000       0.329882         8.9765 
 101   0.0000       0.346434         9.4269 
 102   0.0000       0.349023         9.4974 
 103   0.0000       0.349777         9.5179 
 104   0.0000       0.361596         9.8395 
 105   0.0000       0.368525        10.0281 
 106   0.0000       0.374426        10.1886 
 107   0.0000       0.382693        10.4136 
 108   0.0000       0.395234        10.7549 
 109   0.0000       0.400679        10.9030 
 110   0.0000       0.409778        11.1506 
 111   0.0000       0.415149        11.2968 
 112   0.0000       0.423206        11.5160 
 113   0.0000       0.432187        11.7604 
 114   0.0000       0.437491        11.9047 
 115   0.0000       0.451382        12.2827 
 116   0.0000       0.464425        12.6377 
 117   0.0000       0.469952        12.7880 
 118   0.0000       0.474855        12.9215 
 119   0.0000       0.490891        13.3578 
 120   0.0000       0.493564        13.4306 
 121   0.0000       0.507329        13.8051 
 122   0.0000       0.523157        14.2358 
 123   0.0000       0.530117        14.4252 
 124   0.0000       0.531582        14.4651 
 125   0.0000       0.554339        15.0843 
 126   0.0000       0.583219        15.8702 
 127   0.0000       0.612187        16.6585 
 128   0.0000       0.618832        16.8393 
 129   0.0000       0.628478        17.1018 
 130   0.0000       0.639150        17.3922 
 131   0.0000       0.646003        17.5786 
 132   0.0000       0.661031        17.9876 
 133   0.0000       0.666971        18.1492 
 134   0.0000       0.675320        18.3764 
 135   0.0000       0.701905        19.0998 
 136   0.0000       0.709046        19.2941 
 137   0.0000       0.727515        19.7967 
 138   0.0000       0.753235        20.4966 
 139   0.0000       0.770671        20.9710 
 140   0.0000       0.771160        20.9843 
 141   0.0000       0.783477        21.3195 
 142   0.0000       0.811495        22.0819 
 143   0.0000       0.829541        22.5730 
 144   0.0000       0.837273        22.7833 
 145   0.0000       0.851174        23.1616 
 146   0.0000       0.858476        23.3603 
 147   0.0000       0.871313        23.7096 
 148   0.0000       0.911207        24.7952 
 149   0.0000       0.912247        24.8235 
 150   0.0000       0.921899        25.0862 
 151   0.0000       0.935650        25.4603 
 152   0.0000       0.955131        25.9904 
 153   0.0000       0.957375        26.0515 
 154   0.0000       0.961295        26.1582 
 155   0.0000       0.972451        26.4617 
 156   0.0000       0.978907        26.6374 
 157   0.0000       0.988547        26.8997 
 158   0.0000       1.004214        27.3260 
 159   0.0000       1.004544        27.3350 
 160   0.0000       1.008725        27.4488 
 161   0.0000       1.035923        28.1889 
 162   0.0000       1.043919        28.4065 
 163   0.0000       1.062717        28.9180 
 164   0.0000       1.074578        29.2407 
 165   0.0000       1.081592        29.4316 
 166   0.0000       1.084560        29.5124 
 167   0.0000       1.148667        31.2568 
 168   0.0000       1.153043        31.3759 
 169   0.0000       1.154585        31.4179 
 170   0.0000       1.173845        31.9420 
 171   0.0000       1.195382        32.5280 
 172   0.0000       1.205546        32.8046 
 173   0.0000       1.217194        33.1215 
 174   0.0000       1.252602        34.0850 
 175   0.0000       1.265291        34.4303 
 176   0.0000       1.277960        34.7751 
 177   0.0000       1.279261        34.8105 
 178   0.0000       1.282921        34.9101 
 179   0.0000       1.300975        35.4013 
 180   0.0000       1.301772        35.4230 
 181   0.0000       1.358388        36.9636 
 182   0.0000       1.395911        37.9847 
 183   0.0000       1.407712        38.3058 
 184   0.0000       1.472475        40.0681 
 185   0.0000       1.509518        41.0761 
 186   0.0000       1.544278        42.0219 
 187   0.0000       1.587889        43.2087 
 188   0.0000       1.589329        43.2478 
 189   0.0000       1.590600        43.2824 
 190   0.0000       1.618046        44.0293 
 191   0.0000       1.631909        44.4065 
 192   0.0000       1.656565        45.0774 
 193   0.0000       1.657430        45.1010 
 194   0.0000       1.694402        46.1070 
 195   0.0000       1.695308        46.1317 
 196   0.0000       1.706198        46.4280 
 197   0.0000       1.717110        46.7249 
 198   0.0000       1.749462        47.6053 
 199   0.0000       1.763291        47.9816 
 200   0.0000       1.788765        48.6748 
 201   0.0000       1.809340        49.2346 
 202   0.0000       1.811550        49.2948 
 203   0.0000       1.816588        49.4319 
 204   0.0000       1.843765        50.1714 
 205   0.0000       1.858825        50.5812 
 206   0.0000       1.869445        50.8702 
 207   0.0000       1.910747        51.9941 
 208   0.0000       1.934854        52.6500 
 209   0.0000       1.947870        53.0042 
 210   0.0000       1.972157        53.6651 
 211   0.0000       1.976674        53.7880 
 212   0.0000       1.991385        54.1883 
 213   0.0000       2.011223        54.7281 
 214   0.0000       2.033012        55.3211 
 215   0.0000       2.045479        55.6603 
 216   0.0000       2.059486        56.0415 
 217   0.0000       2.111671        57.4615 
 218   0.0000       2.141172        58.2643 
 219   0.0000       2.147832        58.4455 
 220   0.0000       2.168451        59.0065 
 221   0.0000       2.174413        59.1688 
 222   0.0000       2.177047        59.2405 
 223   0.0000       2.206626        60.0454 
 224   0.0000       2.293310        62.4041 
 225   0.0000       2.324236        63.2457 
 226   0.0000       2.332749        63.4773 
 227   0.0000       2.333550        63.4991 
 228   0.0000       2.399420        65.2915 
 229   0.0000       2.430042        66.1248 
 230   0.0000       2.495348        67.9019 
 231   0.0000       2.564008        69.7702 
 232   0.0000       2.592305        70.5402 
 233   0.0000       2.596435        70.6526 
 234   0.0000       2.604924        70.8836 
 235   0.0000       2.627713        71.5037 
 236   0.0000       2.660963        72.4085 
 237   0.0000       2.662468        72.4494 
 238   0.0000       2.673091        72.7385 
 239   0.0000       2.673391        72.7467 
 240   0.0000       2.692551        73.2680 
 241   0.0000       2.784842        75.7794 
 242   0.0000       2.785471        75.7965 
 243   0.0000       2.829047        76.9823 
 244   0.0000       2.840391        77.2910 
 245   0.0000       2.859159        77.8017 
 246   0.0000       2.868621        78.0591 
 247   0.0000       2.884765        78.4985 
 248   0.0000       2.897524        78.8456 
 249   0.0000       2.902822        78.9898 
 250   0.0000       2.936988        79.9195 
 251   0.0000       2.937781        79.9411 
 252   0.0000       2.960997        80.5728 
 253   0.0000       2.981414        81.1284 
 254   0.0000       2.986990        81.2801 
 255   0.0000       3.002393        81.6993 
 256   0.0000       3.012414        81.9719 
 257   0.0000       3.099786        84.3495 
 258   0.0000       3.153563        85.8128 
 259   0.0000       3.188983        86.7766 
 260   0.0000       3.269371        88.9641 
 261   0.0000       3.307808        90.0100 
 262   0.0000       3.308556        90.0304 
 263   0.0000       3.345857        91.0454 
 264   0.0000       3.369045        91.6764 
 265   0.0000       3.454422        93.9996 
 266   0.0000       3.498549        95.2004 
 267   0.0000       3.559400        96.8562 
 268   0.0000       3.594355        97.8074 
 269   0.0000       3.681272       100.1725 
 270   0.0000       3.704332       100.8000 
 271   0.0000       3.753746       102.1446 
 272   0.0000       3.853960       104.8716 
 273   0.0000       3.888679       105.8163 
 274   0.0000       3.890181       105.8572 
 275   0.0000       3.894617       105.9779 
 276   0.0000       3.906718       106.3072 
 277   0.0000       3.924878       106.8014 
 278   0.0000       4.012625       109.1891 
 279   0.0000       4.059663       110.4690 
 280   0.0000       4.120368       112.1209 
 281   0.0000       4.143939       112.7623 
 282   0.0000       4.169124       113.4476 
 283   0.0000       4.405870       119.8898 
 284   0.0000       4.478136       121.8563 
 285   0.0000       4.504476       122.5730 
 286   0.0000       4.761584       129.5693 
 287   0.0000       4.942986       134.5055 
 288   0.0000       5.081376       138.2713 
 289   0.0000       5.119298       139.3032 
 290   0.0000       5.194868       141.3596 
 291   0.0000       5.223717       142.1446 
 292   0.0000       5.314728       144.6211 
 293   0.0000       5.700699       155.1239 
 294   0.0000       6.130646       166.8234 
 295   0.0000       6.410623       174.4419 
 296   0.0000       6.541768       178.0106 
 297   0.0000       6.841032       186.1539 
 298   0.0000       7.982329       217.2102 
 299   0.0000      17.548034       477.5063 
 300   0.0000      17.552313       477.6227 
 301   0.0000      17.648664       480.2446 
 302   0.0000      23.650765       643.5700 
 303   0.0000      23.890567       650.0954 
 304   0.0000      23.985404       652.6760 
 305   0.0000      24.030652       653.9073 
 306   0.0000      24.071478       655.0182 
 307   0.0000      24.181354       658.0081 
 308   0.0000      35.375811       962.6248 
 309   0.0000      35.657397       970.2871 
 310   0.0000      49.902435      1357.9143 
 311   0.0000      49.963777      1359.5835 
 312   0.0000      66.792408      1817.5138 
 313   0.0000     188.971833      5142.1850 

--------------------
FRAGMENT INFORMATION
--------------------
Fragment  1:    0   1   2   3   4   5 
Fragment  2:    6   7   8   9  10  11  12 
Fragment  3:   13  14  15  16 
Fragment  4:   17 


                    ********************************
                    * MULLIKEN POPULATION ANALYSIS *
                    ********************************

-------------------------
MULLIKEN FRAGMENT CHARGES
-------------------------
 Fragment   0 :  -0.462528
 Fragment   1 :   0.465188
 Fragment   2 :  -0.036566
 Fragment   3 :  -0.966094
Sum of fragment charges:   -1.0000000

---------------------------------
MULLIKEN FRAGMENT OVERLAP CHARGES
---------------------------------
                  0          1          2          3    
      0      18.452770   0.489774  -0.000016  -0.005902
      1       0.489774  35.008739  -0.000752   0.012964
      2      -0.000016  -0.000752  11.676816  -0.695794
      3      -0.005902   0.012964  -0.695794  17.310460

-----------------------
MULLIKEN ATOMIC CHARGES
-----------------------
   0 C :   -0.076776
   1 N :   -0.204838
   2 C :   -0.290447
   3 C :   -0.259162
   4 C :    0.500613
   5 C :   -0.131919
   6 N :   -0.055414
   7 O :   -0.051304
   8 O :   -0.226334
   9 F :   -0.103421
  10 H :    0.295869
  11 H :    0.281499
  12 H :    0.324293
  13 C :   -0.419921
  14 H :    0.128246
  15 H :    0.127191
  16 H :    0.127917
  17 S :   -0.966094
Sum of atomic charges:   -1.0000000

--------------------------------
MULLIKEN REDUCED ORBITAL CHARGES
--------------------------------
  0 C s       :     3.311524  s :     3.311524
      pz      :     0.679522  p :     2.604834
      px      :     0.979877
      py      :     0.945434
      dz2     :     0.052751  d :     0.160418
      dxz     :     0.048830
      dyz     :     0.028429
      dx2y2   :     0.013769
      dxy     :     0.016639
  1 N s       :     3.625878  s :     3.625878
      pz      :     1.142181  p :     3.548435
      px      :     1.241570
      py      :     1.164684
      dz2     :     0.008165  d :     0.030524
      dxz     :     0.007238
      dyz     :     0.004759
      dx2y2   :     0.005504
      dxy     :     0.004858
  2 C s       :     3.376519  s :     3.376519
      pz      :     0.812542  p :     2.829786
      px      :     1.164174
      py      :     0.853070
      dz2     :     0.023581  d :     0.084142
      dxz     :     0.032188
      dyz     :     0.014804
      dx2y2   :     0.007223
      dxy     :     0.006346
  3 C s       :     3.212958  s :     3.212958
      pz      :     1.162605  p :     2.993047
      px      :     0.866440
      py      :     0.964002
      dz2     :     0.015293  d :     0.053157
      dxz     :     0.017411
      dyz     :     0.005091
      dx2y2   :     0.008214
      dxy     :     0.007148
  4 C s       :     2.462345  s :     2.462345
      pz      :     0.883697  p :     2.979968
      px      :     1.254102
      py      :     0.842169
      dz2     :     0.016547  d :     0.057073
      dxz     :     0.015853
      dyz     :     0.010555
      dx2y2   :     0.007212
      dxy     :     0.006906
  5 C s       :     3.333341  s :     3.333341
      pz      :     1.122739  p :     2.725439
      px      :     0.474020
      py      :     1.128679
      dz2     :     0.013626  d :     0.073139
      dxz     :     0.029768
      dyz     :     0.010336
      dx2y2   :     0.011214
      dxy     :     0.008195
  6 N s       :     3.570964  s :     3.570964
      pz      :     1.052546  p :     3.375469
      px      :     1.217556
      py      :     1.105367
      dz2     :     0.027718  d :     0.108981
      dxz     :     0.039357
      dyz     :     0.023078
      dx2y2   :     0.008547
      dxy     :     0.010282
  7 O s       :     3.778745  s :     3.778745
      pz      :     1.027282  p :     4.253862
      px      :     1.827198
      py      :     1.399382
      dz2     :     0.009710  d :     0.018697
      dxz     :     0.003512
      dyz     :     0.005306
      dx2y2   :     0.000102
      dxy     :     0.000067
  8 O s       :     3.816062  s :     3.816062
      pz      :     1.621997  p :     4.398154
      px      :     1.219525
      py      :     1.556633
      dz2     :     0.001059  d :     0.012117
      dxz     :     0.004901
      dyz     :     0.000879
      dx2y2   :     0.003118
      dxy     :     0.002160
  9 F s       :     3.918875  s :     3.918875
      pz      :     1.389301  p :     5.179214
      px      :     1.915713
      py      :     1.874200
      dz2     :     0.003096  d :     0.005331
      dxz     :     0.000997
      dyz     :     0.001201
      dx2y2   :     0.000027
      dxy     :     0.000009
 10 H s       :     0.680232  s :     0.680232
      pz      :     0.005481  p :     0.023899
      px      :     0.014118
      py      :     0.004300
 11 H s       :     0.693539  s :     0.693539
      pz      :     0.016372  p :     0.024962
      px      :     0.003655
      py      :     0.004936
 12 H s       :     0.650180  s :     0.650180
      pz      :     0.007747  p :     0.025527
      px      :     0.013383
      py      :     0.004398
 13 C s       :     3.280608  s :     3.280608
      pz      :     1.051331  p :     3.086671
      px      :     1.003708
      py      :     1.031633
      dz2     :     0.012554  d :     0.052642
      dxz     :     0.005010
      dyz     :     0.011317
      dx2y2   :     0.011537
      dxy     :     0.012225
 14 H s       :     0.849063  s :     0.849063
      pz      :     0.007467  p :     0.022691
      px      :     0.004710
      py      :     0.010514
 15 H s       :     0.850101  s :     0.850101
      pz      :     0.004697  p :     0.022708
      px      :     0.011023
      py      :     0.006987
 16 H s       :     0.849390  s :     0.849390
      pz      :     0.012526  p :     0.022693
      px      :     0.004799
      py      :     0.005368
 17 S s       :     6.008501  s :     6.008501
      pz      :     3.891878  p :    10.926174
      px      :     3.367002
      py      :     3.667294
      dz2     :     0.004138  d :     0.031418
      dxz     :     0.005672
      dyz     :     0.003384
      dx2y2   :     0.005038
      dxy     :     0.013186


                     *******************************
                     * LOEWDIN POPULATION ANALYSIS *
                     *******************************

------------------------
LOEWDIN FRAGMENT CHARGES
------------------------
 Fragment   0 :   0.055321
 Fragment   1 :  -0.058121
 Fragment   2 :  -0.354817
 Fragment   3 :  -0.642383

----------------------------
LOEWDIN FRAGMENT BOND ORDERS
----------------------------
                  0          1          2          3    
      0      56.963826   6.780693   0.000583   0.002475
      1       6.780693  43.789222   0.001182   0.006831
      2       0.000583   0.001182  15.416398   1.744660
      3       0.002475   0.006831   1.744660  16.642383

----------------------
LOEWDIN ATOMIC CHARGES
----------------------
   0 C :    0.111135
   1 N :   -0.112028
   2 C :    0.077171
   3 C :   -0.033798
   4 C :    0.077437
   5 C :   -0.064596
   6 N :    0.240156
   7 O :   -0.153442
   8 O :   -0.338095
   9 F :   -0.078234
  10 H :    0.086959
  11 H :    0.084539
  12 H :    0.099996
  13 C :   -0.358501
  14 H :    0.001473
  15 H :    0.001085
  16 H :    0.001126
  17 S :   -0.642383

-------------------------------
LOEWDIN REDUCED ORBITAL CHARGES
-------------------------------
  0 C s       :     2.743798  s :     2.743798
      pz      :     0.849295  p :     2.815953
      px      :     1.080692
      py      :     0.885965
      dz2     :     0.112517  d :     0.329114
      dxz     :     0.100702
      dyz     :     0.050395
      dx2y2   :     0.033872
      dxy     :     0.031628
  1 N s       :     3.151603  s :     3.151603
      pz      :     1.301232  p :     3.903586
      px      :     1.416939
      py      :     1.185415
      dz2     :     0.017385  d :     0.056839
      dxz     :     0.015718
      dyz     :     0.007795
      dx2y2   :     0.009542
      dxy     :     0.006398
  2 C s       :     2.786878  s :     2.786878
      pz      :     1.032878  p :     2.954105
      px      :     1.096521
      py      :     0.824706
      dz2     :     0.060307  d :     0.181847
      dxz     :     0.069049
      dyz     :     0.027989
      dx2y2   :     0.014017
      dxy     :     0.010486
  3 C s       :     2.781255  s :     2.781255
      pz      :     1.081348  p :     3.128180
      px      :     1.092148
      py      :     0.954685
      dz2     :     0.034119  d :     0.124362
      dxz     :     0.045069
      dyz     :     0.008012
      dx2y2   :     0.022212
      dxy     :     0.014949
  4 C s       :     2.779271  s :     2.779271
      pz      :     1.065952  p :     3.014997
      px      :     1.108746
      py      :     0.840299
      dz2     :     0.040905  d :     0.128295
      dxz     :     0.039160
      dyz     :     0.021256
      dx2y2   :     0.015048
      dxy     :     0.011927
  5 C s       :     2.758143  s :     2.758143
      pz      :     1.088553  p :     3.126134
      px      :     0.958034
      py      :     1.079547
      dz2     :     0.039908  d :     0.180319
      dxz     :     0.071779
      dyz     :     0.019826
      dx2y2   :     0.031415
      dxy     :     0.017391
  6 N s       :     3.051980  s :     3.051980
      pz      :     1.206152  p :     3.501513
      px      :     1.215769
      py      :     1.079591
      dz2     :     0.060435  d :     0.206352
      dxz     :     0.076195
      dyz     :     0.035686
      dx2y2   :     0.017523
      dxy     :     0.016513
  7 O s       :     3.580683  s :     3.580683
      pz      :     1.283741  p :     4.540443
      px      :     1.838701
      py      :     1.418001
      dz2     :     0.020436  d :     0.032317
      dxz     :     0.005156
      dyz     :     0.006535
      dx2y2   :     0.000119
      dxy     :     0.000071
  8 O s       :     3.666473  s :     3.666473
      pz      :     1.709865  p :     4.651133
      px      :     1.369508
      py      :     1.571760
      dz2     :     0.001546  d :     0.020490
      dxz     :     0.009266
      dyz     :     0.001175
      dx2y2   :     0.005713
      dxy     :     0.002791
  9 F s       :     3.714961  s :     3.714961
      pz      :     1.535261  p :     5.355904
      px      :     1.934347
      py      :     1.886296
      dz2     :     0.004765  d :     0.007369
      dxz     :     0.001184
      dyz     :     0.001375
      dx2y2   :     0.000037
      dxy     :     0.000009
 10 H s       :     0.842646  s :     0.842646
      pz      :     0.016677  p :     0.070395
      px      :     0.042286
      py      :     0.011432
 11 H s       :     0.843011  s :     0.843011
      pz      :     0.047833  p :     0.072449
      px      :     0.011210
      py      :     0.013406
 12 H s       :     0.826770  s :     0.826770
      pz      :     0.023099  p :     0.073234
      px      :     0.038733
      py      :     0.011402
 13 C s       :     2.858691  s :     2.858691
      pz      :     1.121808  p :     3.392909
      px      :     1.141309
      py      :     1.129792
      dz2     :     0.025094  d :     0.106901
      dxz     :     0.010060
      dyz     :     0.022390
      dx2y2   :     0.023029
      dxy     :     0.026328
 14 H s       :     0.926756  s :     0.926756
      pz      :     0.022921  p :     0.071771
      px      :     0.014535
      py      :     0.034315
 15 H s       :     0.927144  s :     0.927144
      pz      :     0.013726  p :     0.071771
      px      :     0.036583
      py      :     0.021462
 16 H s       :     0.927198  s :     0.927198
      pz      :     0.040585  p :     0.071676
      px      :     0.014631
      py      :     0.016460
 17 S s       :     5.611492  s :     5.611492
      pz      :     3.858236  p :    10.993686
      px      :     3.454209
      py      :     3.681241
      dz2     :     0.004901  d :     0.037206
      dxz     :     0.006676
      dyz     :     0.003971
      dx2y2   :     0.005757
      dxy     :     0.015900


                      *****************************
                      * MAYER POPULATION ANALYSIS *
                      *****************************

  NA   - Mulliken gross atomic population
  ZA   - Total nuclear charge
  QA   - Mulliken gross atomic charge
  VA   - Mayer's total valence
  BVA  - Mayer's bonded valence
  FA   - Mayer's free valence

  ATOM       NA         ZA         QA         VA         BVA        FA
  0 C      6.0768     6.0000    -0.0768     4.3467     4.3467     0.0000
  1 N      7.2048     7.0000    -0.2048     2.7036     2.7036     0.0000
  2 C      6.2904     6.0000    -0.2904     3.9512     3.9512     0.0000
  3 C      6.2592     6.0000    -0.2592     4.3413     4.3413    -0.0000
  4 C      5.4994     6.0000     0.5006     3.9830     3.9830    -0.0000
  5 C      6.1319     6.0000    -0.1319     3.3448     3.3448    -0.0000
  6 N      7.0554     7.0000    -0.0554     3.9077     3.9077    -0.0000
  7 O      8.0513     8.0000    -0.0513     2.2011     2.2011    -0.0000
  8 O      8.2263     8.0000    -0.2263     2.0107     2.0107    -0.0000
  9 F      9.1034     9.0000    -0.1034     0.9635     0.9635     0.0000
 10 H      0.7041     1.0000     0.2959     0.8713     0.8713     0.0000
 11 H      0.7185     1.0000     0.2815     0.9031     0.9031    -0.0000
 12 H      0.6757     1.0000     0.3243     0.8412     0.8412    -0.0000
 13 C      6.4199     6.0000    -0.4199     3.5832     3.5832    -0.0000
 14 H      0.8718     1.0000     0.1282     0.9430     0.9430    -0.0000
 15 H      0.8728     1.0000     0.1272     0.9417     0.9417    -0.0000
 16 H      0.8721     1.0000     0.1279     0.9390     0.9390    -0.0000
 17 S     16.9661    16.0000    -0.9661     0.6093     0.6093     0.0000

  Mayer bond orders larger than 0.100000
B(  0-C ,  1-N ) :   1.2694 B(  0-C ,  2-C ) :   0.1784 B(  0-C ,  3-C ) :   0.1725 
B(  0-C ,  4-C ) :   0.2779 B(  0-C ,  5-C ) :   1.2598 B(  0-C ,  6-N ) :  -0.1896 
B(  0-C ,  9-F ) :   1.4183 B(  1-N ,  2-C ) :   1.1878 B(  1-N ,  5-C ) :   0.1931 
B(  2-C ,  3-C ) :   1.5793 B(  2-C , 10-H ) :   0.8866 B(  3-C ,  4-C ) :   1.4577 
B(  3-C ,  8-O ) :   0.1375 B(  3-C , 11-H ) :   0.8432 B(  4-C ,  5-C ) :   1.4826 
B(  4-C ,  6-N ) :  -0.1339 B(  4-C ,  8-O ) :   0.1488 B(  4-C ,  9-F ) :  -0.1213 
B(  4-C , 12-H ) :   0.7588 B(  5-C ,  6-N ) :   0.7359 B(  5-C ,  8-O ) :  -0.1462 
B(  5-C ,  9-F ) :  -0.3702 B(  5-C , 12-H ) :   0.1178 B(  6-N ,  7-O ) :   1.8482 
B(  6-N ,  8-O ) :   1.6661 B(  7-O ,  8-O ) :   0.2573 B( 13-C , 14-H ) :   0.9824 
[...]
 288   0.0000       5.092177       138.5652 
 289   0.0000       5.132096       139.6514 
 290   0.0000       5.204127       141.6115 
 291   0.0000       5.270270       143.4113 
 292   0.0000       5.364931       145.9872 
 293   0.0000       5.835424       158.7899 
 294   0.0000       6.283340       170.9784 
 295   0.0000       6.418889       174.6668 
 296   0.0000       6.552078       178.2911 
 297   0.0000       6.863831       186.7743 
 298   0.0000       7.982528       217.2156 
 299   0.0000      17.548178       477.5102 
 300   0.0000      17.552640       477.6316 
 301   0.0000      17.649302       480.2619 
 302   0.0000      23.711653       645.2269 
 303   0.0000      23.963492       652.0798 
 304   0.0000      24.026655       653.7985 
 305   0.0000      24.031930       653.9421 
 306   0.0000      24.183357       658.0626 
 307   0.0000      24.295185       661.1056 
 308   0.0000      35.415349       963.7006 
 309   0.0000      35.734909       972.3963 
 310   0.0000      49.912609      1358.1912 
 311   0.0000      50.009595      1360.8303 
 312   0.0000      66.806448      1817.8959 
 313   0.0000     188.972076      5142.1916 

--------------------
FRAGMENT INFORMATION
--------------------
Fragment  1:    0   1   2   3   4   5 
Fragment  2:    6   7   8   9  10  11  12 
Fragment  3:   13  14  15  16 
Fragment  4:   17 


                    ********************************
                    * MULLIKEN POPULATION ANALYSIS *
                    ********************************

-------------------------
MULLIKEN FRAGMENT CHARGES
-------------------------
 Fragment   0 :  -0.434076
 Fragment   1 :   0.436806
 Fragment   2 :  -0.036514
 Fragment   3 :  -0.966216
Sum of fragment charges:   -1.0000000

---------------------------------
MULLIKEN FRAGMENT OVERLAP CHARGES
---------------------------------
                  0          1          2          3    
      0      14.537700   0.366534   0.000186  -0.007944
      1       0.366534  35.154120  -0.000846   0.014880
      2       0.000186  -0.000846  11.673902  -0.689600
      3      -0.007944   0.014880  -0.689600  17.307548

-----------------------
MULLIKEN ATOMIC CHARGES
-----------------------
   0 C :   -0.003803
   1 N :   -0.191863
   2 C :   -0.302465
   3 C :   -0.309710
   4 C :    0.467240
   5 C :   -0.093476
   6 N :   -0.037143
   7 O :   -0.127610
   8 O :   -0.142775
   9 F :   -0.120752
  10 H :    0.287282
  11 H :    0.284649
  12 H :    0.293154
  13 C :   -0.419998
  14 H :    0.128292
  15 H :    0.127163
  16 H :    0.128029
  17 S :   -0.966216
Sum of atomic charges:   -1.0000000

--------------------------------
MULLIKEN REDUCED ORBITAL CHARGES
--------------------------------
  0 C s       :     3.225354  s :     3.225354
      pz      :     0.677317  p :     2.607803
      px      :     0.983439
      py      :     0.947047
      dz2     :     0.057367  d :     0.170646
      dxz     :     0.050722
      dyz     :     0.029512
      dx2y2   :     0.014716
      dxy     :     0.018328
  1 N s       :     3.610035  s :     3.610035
      pz      :     1.147400  p :     3.547252
      px      :     1.246948
      py      :     1.152904
      dz2     :     0.008785  d :     0.034577
      dxz     :     0.008520
      dyz     :     0.005124
      dx2y2   :     0.006185
      dxy     :     0.005962
  2 C s       :     3.334781  s :     3.334781
      pz      :     0.826399  p :     2.879313
      px      :     1.178908
      py      :     0.874006
      dz2     :     0.025186  d :     0.088371
      dxz     :     0.032910
      dyz     :     0.015745
      dx2y2   :     0.007921
      dxy     :     0.006609
  3 C s       :     3.238740  s :     3.238740
      pz      :     1.158694  p :     3.014853
      px      :     0.889813
      py      :     0.966347
      dz2     :     0.016048  d :     0.056116
      dxz     :     0.018706
      dyz     :     0.005919
      dx2y2   :     0.008034
      dxy     :     0.007410
  4 C s       :     2.484902  s :     2.484902
      pz      :     0.903116  p :     2.985396
      px      :     1.241757
      py      :     0.840523
      dz2     :     0.019070  d :     0.062462
      dxz     :     0.014988
      dyz     :     0.012268
      dx2y2   :     0.008864
      dxy     :     0.007272
  5 C s       :     3.290057  s :     3.290057
      pz      :     1.112430  p :     2.727399
      px      :     0.484500
      py      :     1.130469
      dz2     :     0.013573  d :     0.076020
      dxz     :     0.032090
      dyz     :     0.010951
      dx2y2   :     0.011217
      dxy     :     0.008191
  6 N s       :     3.506867  s :     3.506867
      pz      :     1.061024  p :     3.402093
      px      :     1.227808
      py      :     1.113261
      dz2     :     0.033877  d :     0.128182
      dxz     :     0.042868
      dyz     :     0.026436
      dx2y2   :     0.011320
      dxy     :     0.013681
  7 O s       :     3.794795  s :     3.794795
      pz      :     1.027229  p :     4.314551
      px      :     1.836055
      py      :     1.451267
      dz2     :     0.009693  d :     0.018264
      dxz     :     0.003314
      dyz     :     0.005075
      dx2y2   :     0.000108
      dxy     :     0.000074
  8 O s       :     3.786194  s :     3.786194
      pz      :     1.604506  p :     4.339202
      px      :     1.268119
      py      :     1.466577
      dz2     :     0.001831  d :     0.017379
      dxz     :     0.006335
      dyz     :     0.001486
      dx2y2   :     0.004143
      dxy     :     0.003584
  9 F s       :     3.918882  s :     3.918882
      pz      :     1.399842  p :     5.196641
      px      :     1.918309
      py      :     1.878489
      dz2     :     0.003047  d :     0.005230
      dxz     :     0.000973
      dyz     :     0.001171
      dx2y2   :     0.000029
      dxy     :     0.000010
 10 H s       :     0.689407  s :     0.689407
      pz      :     0.004506  p :     0.023310
      px      :     0.014442
      py      :     0.004362
 11 H s       :     0.690051  s :     0.690051
      pz      :     0.016488  p :     0.025300
      px      :     0.003808
      py      :     0.005004
 12 H s       :     0.677918  s :     0.677918
      pz      :     0.007624  p :     0.028928
      px      :     0.015947
      py      :     0.005356
 13 C s       :     3.280595  s :     3.280595
      pz      :     1.051260  p :     3.086758
      px      :     1.003103
      py      :     1.032395
      dz2     :     0.012551  d :     0.052645
      dxz     :     0.005084
      dyz     :     0.011265
      dx2y2   :     0.011371
      dxy     :     0.012375
 14 H s       :     0.849016  s :     0.849016
      pz      :     0.007467  p :     0.022692
      px      :     0.004725
      py      :     0.010499
 15 H s       :     0.850123  s :     0.850123
      pz      :     0.004697  p :     0.022714
      px      :     0.010958
      py      :     0.007058
 16 H s       :     0.849258  s :     0.849258
      pz      :     0.012521  p :     0.022713
      px      :     0.004809
      py      :     0.005383
 17 S s       :     6.008645  s :     6.008645
      pz      :     3.889930  p :    10.926158
      px      :     3.360616
      py      :     3.675612
      dz2     :     0.004115  d :     0.031413
      dxz     :     0.005784
      dyz     :     0.003345
      dx2y2   :     0.005120
      dxy     :     0.013049


                     *******************************
                     * LOEWDIN POPULATION ANALYSIS *
                     *******************************

------------------------
LOEWDIN FRAGMENT CHARGES
------------------------
 Fragment   0 :   0.056862
 Fragment   1 :  -0.060282
 Fragment   2 :  -0.354776
 Fragment   3 :  -0.641804

----------------------------
LOEWDIN FRAGMENT BOND ORDERS
----------------------------
                  0          1          2          3    
      0      57.153173   6.743042   0.000642   0.002758
      1       6.743042  44.129911   0.001227   0.006653
      2       0.000642   0.001227  15.416475   1.744649
      3       0.002758   0.006653   1.744649  16.641804

----------------------
LOEWDIN ATOMIC CHARGES
----------------------
   0 C :    0.085771
   1 N :   -0.079461
   2 C :    0.060451
   3 C :   -0.026435
   4 C :    0.076969
   5 C :   -0.060432
   6 N :    0.217380
   7 O :   -0.200097
   8 O :   -0.239351
   9 F :   -0.088028
  10 H :    0.083772
  11 H :    0.086881
  12 H :    0.079160
  13 C :   -0.358353
  14 H :    0.001499
  15 H :    0.001064
  16 H :    0.001015
  17 S :   -0.641804

-------------------------------
LOEWDIN REDUCED ORBITAL CHARGES
-------------------------------
  0 C s       :     2.730821  s :     2.730821
      pz      :     0.851364  p :     2.831705
      px      :     1.094697
      py      :     0.885644
      dz2     :     0.122267  d :     0.351702
      dxz     :     0.104272
      dyz     :     0.052275
      dx2y2   :     0.037288
      dxy     :     0.035600
  1 N s       :     3.111063  s :     3.111063
      pz      :     1.298650  p :     3.903542
      px      :     1.430971
      py      :     1.173921
      dz2     :     0.019039  d :     0.064857
      dxz     :     0.018066
      dyz     :     0.008927
      dx2y2   :     0.010846
      dxy     :     0.007979
  2 C s       :     2.774838  s :     2.774838
      pz      :     1.039615  p :     2.972654
      px      :     1.091397
      py      :     0.841642
      dz2     :     0.063996  d :     0.192057
      dxz     :     0.071714
      dyz     :     0.030370
      dx2y2   :     0.015114
      dxy     :     0.010863
  3 C s       :     2.770503  s :     2.770503
      pz      :     1.079287  p :     3.126588
      px      :     1.090401
      py      :     0.956900
      dz2     :     0.035278  d :     0.129345
      dxz     :     0.047474
      dyz     :     0.009169
      dx2y2   :     0.021793
      dxy     :     0.015630
  4 C s       :     2.749979  s :     2.749979
      pz      :     1.090346  p :     3.030910
      px      :     1.101539
      py      :     0.839025
      dz2     :     0.046511  d :     0.142142
      dxz     :     0.039953
      dyz     :     0.025011
      dx2y2   :     0.017677
      dxy     :     0.012990
  5 C s       :     2.745273  s :     2.745273
      pz      :     1.098532  p :     3.126926
      px      :     0.952474
      py      :     1.075920
      dz2     :     0.040595  d :     0.188233
      dxz     :     0.077414
      dyz     :     0.021523
      dx2y2   :     0.031146
      dxy     :     0.017556
  6 N s       :     3.014225  s :     3.014225
      pz      :     1.213367  p :     3.521971
      px      :     1.224971
      py      :     1.083633
      dz2     :     0.072644  d :     0.246424
      dxz     :     0.086006
      dyz     :     0.041536
      dx2y2   :     0.024002
      dxy     :     0.022236
  7 O s       :     3.575013  s :     3.575013
      pz      :     1.280106  p :     4.593278
      px      :     1.846003
      py      :     1.467168
      dz2     :     0.020355  d :     0.031807
      dxz     :     0.004945
      dyz     :     0.006295
      dx2y2   :     0.000132
      dxy     :     0.000080
  8 O s       :     3.584154  s :     3.584154
      pz      :     1.710235  p :     4.624858
      px      :     1.428165
      py      :     1.486458
      dz2     :     0.002783  d :     0.030338
      dxz     :     0.012760
      dyz     :     0.002049
      dx2y2   :     0.008011
      dxy     :     0.004735
  9 F s       :     3.713783  s :     3.713783
      pz      :     1.539984  p :     5.366988
      px      :     1.937325
      py      :     1.889679
      dz2     :     0.004696  d :     0.007258
      dxz     :     0.001171
      dyz     :     0.001342
      dx2y2   :     0.000039
      dxy     :     0.000010
 10 H s       :     0.847520  s :     0.847520
      pz      :     0.014080  p :     0.068707
      px      :     0.042827
      py      :     0.011800
 11 H s       :     0.840789  s :     0.840789
      pz      :     0.047621  p :     0.072330
      px      :     0.011299
      py      :     0.013410
 12 H s       :     0.837953  s :     0.837953
      pz      :     0.022031  p :     0.082887
      px      :     0.046640
      py      :     0.014216
 13 C s       :     2.858458  s :     2.858458
      pz      :     1.121986  p :     3.392975
      px      :     1.141524
      py      :     1.129465
      dz2     :     0.025084  d :     0.106919
      dxz     :     0.010235
      dyz     :     0.022285
      dx2y2   :     0.022712
      dxy     :     0.026604
 14 H s       :     0.926724  s :     0.926724
      pz      :     0.022919  p :     0.071777
      px      :     0.014606
      py      :     0.034252
 15 H s       :     0.927147  s :     0.927147
      pz      :     0.013729  p :     0.071789
      px      :     0.036368
      py      :     0.021693
 16 H s       :     0.927216  s :     0.927216
      pz      :     0.040589  p :     0.071770
      px      :     0.014676
      py      :     0.016504
 17 S s       :     5.611346  s :     5.611346
      pz      :     3.856838  p :    10.993255
      px      :     3.449360
      py      :     3.687057
      dz2     :     0.004871  d :     0.037203
      dxz     :     0.006812
      dyz     :     0.003927
      dx2y2   :     0.005860
      dxy     :     0.015732


                      *****************************
                      * MAYER POPULATION ANALYSIS *
                      *****************************

  NA   - Mulliken gross atomic population
  ZA   - Total nuclear charge
  QA   - Mulliken gross atomic charge
  VA   - Mayer's total valence
  BVA  - Mayer's bonded valence
  FA   - Mayer's free valence

  ATOM       NA         ZA         QA         VA         BVA        FA
  0 C      6.0038     6.0000    -0.0038     4.2638     4.2638     0.0000
  1 N      7.1919     7.0000    -0.1919     2.7322     2.7322    -0.0000
  2 C      6.3025     6.0000    -0.3025     4.0364     4.0364    -0.0000
  3 C      6.3097     6.0000    -0.3097     4.4350     4.4350    -0.0000
  4 C      5.5328     6.0000     0.4672     4.1097     4.1097     0.0000
  5 C      6.0935     6.0000    -0.0935     3.4189     3.4189    -0.0000
  6 N      7.0371     7.0000    -0.0371     3.9973     3.9973     0.0000
  7 O      8.1276     8.0000    -0.1276     2.1346     2.1346     0.0000
  8 O      8.1428     8.0000    -0.1428     2.1563     2.1563    -0.0000
  9 F      9.1208     9.0000    -0.1208     0.9278     0.9278    -0.0000
 10 H      0.7127     1.0000     0.2873     0.8711     0.8711    -0.0000
 11 H      0.7154     1.0000     0.2846     0.9025     0.9025     0.0000
 12 H      0.7068     1.0000     0.2932     0.8664     0.8664     0.0000
 13 C      6.4200     6.0000    -0.4200     3.5830     3.5830    -0.0000
 14 H      0.8717     1.0000     0.1283     0.9431     0.9431    -0.0000
 15 H      0.8728     1.0000     0.1272     0.9416     0.9416    -0.0000
 16 H      0.8720     1.0000     0.1280     0.9388     0.9388     0.0000
 17 S     16.9662    16.0000    -0.9662     0.6088     0.6088    -0.0000

  Mayer bond orders larger than 0.100000
B(  0-C ,  1-N ) :   1.2915 B(  0-C ,  2-C ) :   0.1557 B(  0-C ,  3-C ) :   0.2146 
B(  0-C ,  4-C ) :   0.2715 B(  0-C ,  5-C ) :   1.2134 B(  0-C ,  6-N ) :  -0.1803 
B(  0-C ,  9-F ) :   1.3742 B(  1-N ,  2-C ) :   1.1533 B(  1-N ,  5-C ) :   0.2183 
B(  2-C ,  3-C ) :   1.6823 B(  2-C ,  5-C ) :   0.1073 B(  2-C , 10-H ) :   0.8860 
B(  3-C ,  4-C ) :   1.3804 B(  3-C ,  8-O ) :   0.1473 B(  3-C , 11-H ) :   0.8366 
B(  4-C ,  5-C ) :   1.6357 B(  4-C ,  6-N ) :  -0.1088 B(  4-C ,  8-O ) :   0.2258 
B(  4-C ,  9-F ) :  -0.1487 B(  4-C , 12-H ) :   0.7478 B(  5-C ,  6-N ) :   0.6912 
B(  5-C ,  8-O ) :  -0.2126 B(  5-C ,  9-F ) :  -0.3341 B(  5-C , 12-H ) :   0.1323 
B(  6-N ,  7-O ) :   1.8213 B(  6-N ,  8-O ) :   1.8197 B(  7-O ,  8-O ) :   0.2467 
B( 13-C , 14-H ) :   0.9825 B( 13-C , 15-H ) :   0.9839 B( 13-C , 16-H ) :   0.9825 
B( 13-C , 17-S ) :   0.6348 

-------
TIMINGS
-------

Total SCF time: 0 days 0 hours 0 min 12 sec 

Total time                  ....      12.679 sec
Sum of individual times     ....      11.419 sec  ( 90.1%)

Fock matrix formation       ....       8.846 sec  ( 69.8%)
  Split-RI-J                ....       0.490 sec  (  5.5% of F)
  Chain of spheres X        ....       7.093 sec  ( 80.2% of F)
  XC integration            ....       0.519 sec  (  5.9% of F)
    Basis function eval.    ....       0.053 sec  ( 10.3% of XC)
    Density eval.           ....       0.054 sec  ( 10.5% of XC)
    XC-Functional eval.     ....       0.029 sec  (  5.6% of XC)
    XC-Potential eval.      ....       0.058 sec  ( 11.2% of XC)
Diagonalization             ....       0.027 sec  (  0.2%)
Density matrix formation    ....       0.008 sec  (  0.1%)
Population analysis         ....       0.052 sec  (  0.4%)
Initial guess               ....       0.046 sec  (  0.4%)
Orbital Transformation      ....       0.000 sec  (  0.0%)
Orbital Orthonormalization  ....       0.034 sec  (  0.3%)
DIIS solution               ....       0.011 sec  (  0.1%)
SOSCF solution              ....       0.031 sec  (  0.2%)
Grid generation             ....       2.399 sec  ( 18.9%)

Maximum memory used throughout the entire SCF-calculation: 68.7 MB

-------------------------   --------------------
FINAL SINGLE POINT ENERGY      -990.257489356329
-------------------------   --------------------

                                *** OPTIMIZATION RUN DONE ***

                            ***************************************
                            *     ORCA property calculations      *
                            ***************************************

                                    ---------------------
                                    Active property flags
                                    ---------------------
   (+) Dipole Moment


------------------------------------------------------------------------------
                       ORCA ELECTRIC PROPERTIES CALCULATION
------------------------------------------------------------------------------

Dipole Moment Calculation                       ... on
Quadrupole Moment Calculation                   ... off
Polarizability Calculation                      ... off
GBWName                                         ... structure_opt.gbw
Electron density                                ... structure_opt.scfp
The origin for moment calculation is the CENTER OF MASS  = (-4.013901, -1.790175  4.514392)

-------------
DIPOLE MOMENT
-------------
                                X             Y             Z
Electronic contribution:     16.48873      14.83742      -6.30313
Nuclear contribution   :     -9.40874      -9.83518       9.70077
                        -----------------------------------------
Total Dipole Moment    :      7.07999       5.00224       3.39764
                        -----------------------------------------
Magnitude (a.u.)       :      9.31089
Magnitude (Debye)      :     23.66639



--------------------
Rotational spectrum 
--------------------
 
Rotational constants in cm-1:     0.037061     0.008950     0.008431 
Rotational constants in MHz :  1111.075733   268.321506   252.761632 

 Dipole components along the rotational axes: 
x,y,z [a.u.] :    -8.790296    -2.609127    -1.617325 
x,y,z [Debye]:   -22.343157    -6.631873    -4.110913 

 

Timings for individual modules:

Sum of individual times         ...      996.849 sec (=  16.614 min)
GTO integral calculation        ...       57.304 sec (=   0.955 min)   5.7 %
SCF iterations                  ...      766.841 sec (=  12.781 min)  76.9 %
SCF Gradient evaluation         ...      171.573 sec (=   2.860 min)  17.2 %
Geometry relaxation             ...        1.131 sec (=   0.019 min)   0.1 %
                             ****ORCA TERMINATED NORMALLY****
TOTAL RUN TIME: 0 days 0 hours 17 minutes 38 seconds 429 msec
