
                                 *****************
                                 * O   R   C   A *
                                 *****************

                                            #,                                       
                                            ###                                      
                                            ####                                     
                                            #####                                    
                                            ######                                   
                                           ########,                                 
                                     ,,################,,,,,                         
                               ,,#################################,,                 
                          ,,##########################################,,             
                       ,#########################################, ''#####,          
                    ,#############################################,,   '####,        
                  ,##################################################,,,,####,       
                ,###########''''           ''''###############################       
              ,#####''   ,,,,##########,,,,          '''####'''          '####       
            ,##' ,,,,###########################,,,                        '##       
           ' ,,###''''                  '''############,,,                           
         ,,##''                                '''############,,,,        ,,,,,,###''
      ,#''                                            '''#######################'''  
     '                                                          ''''####''''         
             ,#######,   #######,   ,#######,      ##                                
            ,#'     '#,  ##    ##  ,#'     '#,    #''#        ######   ,####,        
            ##       ##  ##   ,#'  ##            #'  '#       #        #'  '#        
            ##       ##  #######   ##           ,######,      #####,   #    #        
            '#,     ,#'  ##    ##  '#,     ,#' ,#      #,         ##   #,  ,#        
             '#######'   ##     ##  '#######'  #'      '#     #####' # '####'        



                  #######################################################
                  #                        -***-                        #
                  #          Department of theory and spectroscopy      #
                  #    Directorship and core code : Frank Neese         #
                  #        Max Planck Institute fuer Kohlenforschung    #
                  #                Kaiser Wilhelm Platz 1               #
                  #                 D-45470 Muelheim/Ruhr               #
                  #                      Germany                        #
                  #                                                     #
                  #                  All rights reserved                #
                  #                        -***-                        #
                  #######################################################


                         Program Version 5.0.1 -  RELEASE  -


 With contributions from (in alphabetic order):
   Daniel Aravena         : Magnetic Suceptibility
   Michael Atanasov       : Ab Initio Ligand Field Theory (pilot matlab implementation)
   Alexander A. Auer      : GIAO ZORA, VPT2 properties, NMR spectrum
   Ute Becker             : Parallelization
   Giovanni Bistoni       : ED, misc. LED, open-shell LED, HFLD
   Martin Brehm           : Molecular dynamics
   Dmytro Bykov           : SCF Hessian
   Vijay G. Chilkuri      : MRCI spin determinant printing, contributions to CSF-ICE
   Dipayan Datta          : RHF DLPNO-CCSD density
   Achintya Kumar Dutta   : EOM-CC, STEOM-CC
   Dmitry Ganyushin       : Spin-Orbit,Spin-Spin,Magnetic field MRCI
   Miquel Garcia          : C-PCM and meta-GGA Hessian, CC/C-PCM, Gaussian charge scheme
   Yang Guo               : DLPNO-NEVPT2, F12-NEVPT2, CIM, IAO-localization
   Andreas Hansen         : Spin unrestricted coupled pair/coupled cluster methods
   Benjamin Helmich-Paris : MC-RPA, TRAH-SCF, COSX integrals
   Lee Huntington         : MR-EOM, pCC
   Robert Izsak           : Overlap fitted RIJCOSX, COSX-SCS-MP3, EOM
   Marcus Kettner         : VPT2
   Christian Kollmar      : KDIIS, OOCD, Brueckner-CCSD(T), CCSD density, CASPT2, CASPT2-K
   Simone Kossmann        : Meta GGA functionals, TD-DFT gradient, OOMP2, MP2 Hessian
   Martin Krupicka        : Initial AUTO-CI
   Lucas Lang             : DCDCAS
   Marvin Lechner         : AUTO-CI (C++ implementation), FIC-MRCC
   Dagmar Lenk            : GEPOL surface, SMD
   Dimitrios Liakos       : Extrapolation schemes; Compound Job, initial MDCI parallelization
   Dimitrios Manganas     : Further ROCIS development; embedding schemes
   Dimitrios Pantazis     : SARC Basis sets
   Anastasios Papadopoulos: AUTO-CI, single reference methods and gradients
   Taras Petrenko         : DFT Hessian,TD-DFT gradient, ASA, ECA, R-Raman, ABS, FL, XAS/XES, NRVS
   Peter Pinski           : DLPNO-MP2, DLPNO-MP2 Gradient
   Christoph Reimann      : Effective Core Potentials
   Marius Retegan         : Local ZFS, SOC
   Christoph Riplinger    : Optimizer, TS searches, QM/MM, DLPNO-CCSD(T), (RO)-DLPNO pert. Triples
   Tobias Risthaus        : Range-separated hybrids, TD-DFT gradient, RPA, STAB
   Michael Roemelt        : Original ROCIS implementation
   Masaaki Saitow         : Open-shell DLPNO-CCSD energy and density
   Barbara Sandhoefer     : DKH picture change effects
   Avijit Sen             : IP-ROCIS
   Kantharuban Sivalingam : CASSCF convergence, NEVPT2, FIC-MRCI
   Bernardo de Souza      : ESD, SOC TD-DFT
   Georgi Stoychev        : AutoAux, RI-MP2 NMR, DLPNO-MP2 response
   Willem Van den Heuvel  : Paramagnetic NMR
   Boris Wezisla          : Elementary symmetry handling
   Frank Wennmohs         : Technical directorship


 We gratefully acknowledge several colleagues who have allowed us to
 interface, adapt or use parts of their codes:
   Stefan Grimme, W. Hujo, H. Kruse, P. Pracht,  : VdW corrections, initial TS optimization,
                  C. Bannwarth, S. Ehlert          DFT functionals, gCP, sTDA/sTD-DF
   Ed Valeev, F. Pavosevic, A. Kumar             : LibInt (2-el integral package), F12 methods
   Garnet Chan, S. Sharma, J. Yang, R. Olivares  : DMRG
   Ulf Ekstrom                                   : XCFun DFT Library
   Mihaly Kallay                                 : mrcc  (arbitrary order and MRCC methods)
   Jiri Pittner, Ondrej Demel                    : Mk-CCSD
   Frank Weinhold                                : gennbo (NPA and NBO analysis)
   Christopher J. Cramer and Donald G. Truhlar   : smd solvation model
   Lars Goerigk                                  : TD-DFT with DH, B97 family of functionals
   V. Asgeirsson, H. Jonsson                     : NEB implementation
   FAccTs GmbH                                   : IRC, NEB, NEB-TS, DLPNO-Multilevel, CI-OPT
                                                   MM, QMMM, 2- and 3-layer-ONIOM, Crystal-QMMM,
                                                   LR-CPCM, SF, NACMEs, symmetry and pop. for TD-DFT,
                                                   nearIR, NL-DFT gradient (VV10), updates on ESD,
                                                   ML-optimized integration grids
   S Lehtola, MJT Oliveira, MAL Marques          : LibXC Library
   Liviu Ungur et al                             : ANISO software


 Your calculation uses the libint2 library for the computation of 2-el integrals
 For citations please refer to: http://libint.valeyev.net

 Your ORCA version has been built with support for libXC version: 5.1.0
 For citations please refer to: https://tddft.org/programs/libxc/

 This ORCA versions uses:
   CBLAS   interface :  Fast vector & matrix operations
   LAPACKE interface :  Fast linear algebra routines
   SCALAPACK package :  Parallel linear algebra routines
   Shared memory     :  Shared parallel matrices
   BLAS/LAPACK       :  OpenBLAS 0.3.15  USE64BITINT DYNAMIC_ARCH NO_AFFINITY SkylakeX SINGLE_THREADED
        Core in use  :  SkylakeX
   Copyright (c) 2011-2014, The OpenBLAS Project




***************************************
The coordinates will be read from file: structure_opt.xyz
***************************************


Your calculation utilizes the atom-pairwise dispersion correction
based on tight binding partial charges (D4)
Cite in your paper:
E.Caldeweyher, C.Bannwarth, S.Grimme, J.Chem.Phys., (2017), 147, 034112.
E.Caldeweyher, S.Ehlert, A.Hansen, H.Neugebauer, S.Grimme, J.Chem.Phys., (2018), in progress.
   

Your calculation utilizes the SMD solvation module
Please cite in your paper:
A.V. Marenich, C.J. Cramer, D.G. Truhlar J. Phys. Chem. B, 113, (2009), 6378 

XCFun DFT library Copyright 2009-2010 Ulf Ekstrom and contributors.
See http://admol.org/xcfun for more information.
This is free software; see the source code for copying conditions.
There is ABSOLUTELY NO WARRANTY; not even for MERCHANTABILITY or FITNESS FOR A PARTICULAR PURPOSE.
For details see the documentation.
Scientific users of this library should cite U. Ekstrom, L. Visscher, R. Bast, A. J. Thorvaldsen and K. Ruud;
J.Chem.Theor.Comp. 2010, DOI: 10.1021/ct100117s
XCFun Version 0.99 

Your calculation utilizes a Nudged-Elastic-Band implementation
 by V.Asgeirsson, C. Riplinger & H. Jonsson
Please cite in your paper:
 V. Asgeirsson et al., in prep. (2019)
   

================================================================================

----- Orbital basis set information -----
Your calculation utilizes the basis: 6-311++G**
   H, Li - Ne  : R. Krishnan, J. S. Binkley, R. Seeger and J. A. Pople, J. Chem. Phys. 72, 650 (1980).
   Na - Ar     : A. D. McLean and G. S. Chandler J. Chem. Phys. 72, 5639, (1980).
   K  - Ca     : J.-P. Blaudeau, M. P. McGrath, L. A. Curtiss and L. Radom, J. Chem. Phys. 107, 5016 (1997).
   Ga - Kr     : L. A. Curtiss, M. P. McGrath, J.-P. Blandeau, N. E. Davis, R. C. Binning and L. Radom, J. Chem. Phys. 103, 6104 (1995).
   Pol./Diff.
   H, Li - Cl  : T. Clark, J. Chandrasekhar and P. v. R. Schleyer, J. Comp. Chem. 4, 294 (1983).
   H - Ne      : M. J. Frisch, J. A. Pople and J. S. Binkley, J. Chem. Phys. 80, 3265 (1984).

----- AuxJ basis set information -----
Your calculation utilizes the auxiliary basis: def2/J
   F. Weigend, Phys. Chem. Chem. Phys. 8, 1057 (2006).

================================================================================
                                        WARNINGS
                       Please study these warnings very carefully!
================================================================================


WARNING: The environment variable RSH_COMMAND is not set!
  ===> : All Displacements for the Numerical Hessian calculation
         will be started on localhost

WARNING: Geometry Optimization
  ===> : Switching off AutoStart
         For restart on a previous wavefunction, please use MOREAD

INFO   : the flag for use of the SHARK integral package has been found!

================================================================================
                                       INPUT FILE
================================================================================
NAME = TS_search_opt_without_h.inp
|  1> !wb97x 6-311++G** D4 NEB-TS OPT NUMFREQ CPCM(WATER)
|  2> %maxcore  3500
|  3> %pal
|  4> nprocs 24
|  5> end
|  6> %cpcm
|  7> smd true
|  8> SMDsolvent "water"
|  9> end
| 10> %geom
| 11> MaxIter 1000   # allows for n optimization cycles
| 12> EnforceStrictConvergence False
| 13> end
| 14> %NEB NEB_END_XYZFILE "2f3_prod_opt.xyz" END
| 15> * XYZfile -1 1 structure_opt.xyz
| 16> 
| 17>                          ****END OF INPUT****
================================================================================


------------------------------------------------------------------------------- 
                         Nudged Elastic Band Calculation                       
------------------------------------------------------------------------------- 

Number of images (incl. end points)     ....  10
Number of intermediate images           ....  8
Number of optimized images              ....  8
Optimization of end points before NEB   ....  NO
Use existing gbw files for MO input     ....  NO
Number of atoms                         ....  18
Number of (active) degrees of freedom   ....  54
Constrained atoms                       ....  None

-----------------------------------------
  REACTANT (ANGSTROEM)
-----------------------------------------
C     -0.010730    -0.017381     1.859157 
N      1.112189    -0.214349     2.475189 
C      1.181694    -0.224204     3.811277 
C      0.076995    -0.030188     4.609028 
C     -1.117260     0.179092     3.950194 
C     -1.197233     0.190987     2.596173 
N     -2.462551     0.413643     1.944575 
O     -2.553630     0.428980     0.700024 
O     -3.508502     0.597926     2.625612 
F     -0.017459    -0.016759     0.509173 
H      2.165560    -0.394860     4.234030 
H      0.140292    -0.041117     5.688731 
H     -2.035815     0.340666     4.390161 
C     -6.728644    -4.894376     2.724204 
H     -6.824966    -5.787359     2.100393 
H     -7.652582    -4.313111     2.659749 
H     -6.572655    -5.201839     3.762033 
S     -5.334703    -3.898752     2.162296 

-----------------------------------------
  PRODUCT (ANGSTROEM)
-----------------------------------------
C     -0.006655     0.014080     1.789576 
N      1.150760    -0.163122     2.425247 
C      1.177726    -0.139964     3.759145 
C      0.054738     0.057580     4.546999 
C     -1.158972     0.233636     3.911162 
C     -1.178720     0.217442     2.525234 
N     -2.493686     0.427964     1.904940 
O     -2.584738     1.164910     0.947848 
O     -3.439094    -0.145340     2.414303 
F      3.139899     2.499865     0.919104 
H      2.152169    -0.281946     4.215772 
H      0.130494     0.071637     5.627108 
H     -2.077395     0.389730     4.465403 
C      0.049505     1.625975    -0.482258 
H     -0.875798     2.113075    -0.187252 
H      0.131238     1.624494    -1.570971 
H      0.921382     2.132605    -0.060262 
S      0.064147    -0.119619     0.009902 



----------------------
NEB settings
----------------------
Method type                             ....  climbing image
Threshold for climbing image            ....  2.00e-02 Eh/Bohr 
Free endpoints                          ....  off 
Tangent type                            ....  improved 
Number of intermediate images           ....  8 
Number of images free to move           ....  8 
Spring type for image distribution      ....  distance between adjacent images 
Spring constant                         ....  energy weighted (0.0100 -to- 0.1000) Eh/Bohr^2 
Spring force perp. to the path          ....  none 
Generation of initial path              ....  image dependent pair potential 
Initial path via TS guess               ....  off 

Minimization of RMSD: Rotation          ....  always 
Minimization of RMSD: Translation type  ....  centroid 
Center fixed to origin                  ....  true 
Remove external force                   ....  true 

Reparametrization of the path           ....  off 
Convergence thresholds:
Convergence monitored for               ....  all images
Scaling factor                          ....  10.00

Convergence parameters for regular images:
               Max(|Fp|)                ....  2.00e-02 Eh/Bohr
               RMS(Fp)                  ....  1.00e-02 Eh/Bohr

Convergence parameters for climbing image:
               Max(|F|)                 ....  2.00e-03 Eh/Bohr
               RMS(F)                   ....  1.00e-03 Eh/Bohr
Optimization method:
Method                                  ....  L-BFGS
Max. iterations                         ....  500 
Step size                               ....  1.00 
Maximum allowed step size               ....  0.10 Bohr

LBFGS parameters: 
               Memory                   ....  20 
               Initial step size        ....  0.0010 
               Estimate curvature       ....  YES 
               Reset on maxmove         ....  YES 
               Reparam. on reset        ....  NO 
Generation of  the initial path:
Minimize RMSD between reactant and product configurations     .... done
       RMSD before minimization         ....  5.7842 Bohr
       RMSD after minimization          ....  3.0488 Bohr
Performing linear interpolation         ....  done
Interpolation using                     ....  IDPP (Image Dependent Pair Potential)
IDPP-Settings:
       Remove global transl. and rot.   ...   true
       Convergence tolerance            ....  0.0100 1/Ang.^3
       Max. numer of iterations         ....    7000
       Spring constant                  ....  1.0000 1/Ang.^4
       Time step                        ....  0.0100 fs
       Max. movement per iteration      ....  0.0500 Ang.
       Full print                       ....  false 
idpp initial path generation successfully converged in 88 iterations
Displacement along initial path:             24.3256 Bohr
Writing initial trajectory to file      ....  TS_search_opt_without_h_initial_path_trj.xyz



----------------------
NEB OPTIMIZATION      
----------------------

Following output files will be written:
Energy profile during opt. written to    ....  TS_search_opt_without_h.interp
Optimization log-file                    ....  TS_search_opt_without_h.NEB.log
Current trajectory will be written to    ....  TS_search_opt_without_h_MEP_trj.xyz
       and to allxyz file                ....  TS_search_opt_without_h_MEP.allxyz
       and individual images to xyz file ....  TS_search_opt_without_h_im{NIm}.xyz
Trajectory history will be written to    ....  TS_search_opt_without_h_MEP_ALL_trj.xyz
Converged CI will be written to          ....  TS_search_opt_without_h_NEB-CI_converged.xyz
Converged TS will be written to          ....  TS_search_opt_without_h_NEB-TS_converged.xyz

Single point energy and gradient calculation of reactant and
product configurations (have to be performed only once)
Properties of fixed NEB end points:
               Reactant:
                         E               ....   -990.260067 Eh
                         RMS(F)          ....      0.017188 Eh/Bohr
                         MAX(|F|)        ....      0.068811 Eh/Bohr
      Warning: Reactant seems to be less converged than convergence tolerances.
               You might want to use free end NEB or preopt_ends true.
               Product:
                         E               ....   -990.305521 Eh
                         RMS(F)          ....      0.001265 Eh/Bohr
                         MAX(|F|)        ....      0.003611 Eh/Bohr



Starting iterations:

Optim.  Iteration  HEI  E(HEI)-E(0)  max(|Fp|)   RMS(Fp)    dS
Switch-on CI threshold               0.020000 
   LBFGS     0      4    0.166277    0.111404   0.019895  24.3256       
   LBFGS     1      5    0.147295    0.077619   0.009962  24.3227       
   LBFGS     2      5    0.144968    0.074515   0.011931  24.3217       
   LBFGS     3      4    0.144589    0.088790   0.011318  24.3091       
   LBFGS     4      4    0.145799    0.102483   0.013429  24.3144       
   LBFGS     5      5    0.138182    0.065631   0.008414  24.3198       
   LBFGS     6      5    0.140094    0.088285   0.011874  24.3256       
   LBFGS     7      5    0.140435    0.095108   0.013408  24.3410       
   LBFGS     8      5    0.136583    0.055975   0.007311  24.3371       
   LBFGS     9      5    0.137372    0.057238   0.008695  24.3444       
   LBFGS    10      5    0.138939    0.072990   0.011002  24.3712       
   LBFGS    11      5    0.137020    0.101337   0.011276  24.3928       
   LBFGS    12      5    0.135793    0.047360   0.008674  24.4020       
   LBFGS    13      5    0.134730    0.041579   0.008266  24.4412       
   LBFGS    14      5    0.135171    0.048572   0.008315  24.4609       
   LBFGS    15      5    0.135102    0.046998   0.009462  24.5000       
   LBFGS    16      5    0.135273    0.047937   0.010075  24.5670       
   LBFGS    17      5    0.134364    0.051866   0.008507  24.6012       
   LBFGS    18      5    0.132420    0.035212   0.006294  24.6211       
   LBFGS    19      5    0.131963    0.033518   0.005673  24.6940       
   LBFGS    20      5    0.133767    0.050467   0.008669  24.7551       
   LBFGS    21      5    0.131993    0.042022   0.008231  24.8211       
   LBFGS    22      5    0.131384    0.039612   0.007903  24.9184       
   LBFGS    23      5    0.130564    0.022505   0.005170  24.9395       
   LBFGS    24      5    0.129836    0.019758   0.004519  24.9629       

Image  5 will be converted to a climbing image in the next iteration (max(|Fp|) < 0.0200) 

Optim.  Iteration  CI   E(CI)-E(0)   max(|Fp|)   RMS(Fp)    dS     max(|FCI|)   RMS(FCI)
Convergence thresholds               0.020000   0.010000            0.002000    0.001000 
   LBFGS    25      5    0.129493    0.019499   0.003432  24.9839    0.006754    0.002116       
   LBFGS    26      5    0.129406    0.032347   0.006395  25.0701    0.015175    0.005141       
   LBFGS    27      5    0.129207    0.046050   0.008288  25.1965    0.020605    0.007275       
   LBFGS    28      5    0.128195    0.015731   0.003806  25.2149    0.012061    0.004235       
   LBFGS    29      5    0.127824    0.015555   0.003287  25.2354    0.006134    0.002233       
   LBFGS    30      5    0.127526    0.019126   0.003751  25.3568    0.019693    0.005186       
   LBFGS    31      5    0.127805    0.014978   0.003274  25.3870    0.030131    0.007219       
   LBFGS    32      5    0.127067    0.018293   0.003690  25.4258    0.022062    0.005148       
   LBFGS    33      5    0.126093    0.025594   0.004203  25.5654    0.016885    0.004405       

Possible intermediate minimum found at image(s): 1 
  => have a look at the .interp file.
  => it is often a good idea to divide the path calculation into smaller fragments. 

   LBFGS    34      5    0.125845    0.013733   0.002892  25.5905    0.019586    0.004954       
   LBFGS    35      5    0.125305    0.016441   0.002977  25.6162    0.006049    0.002456       
   LBFGS    36      5    0.125017    0.025214   0.003854  25.7559    0.024105    0.007075       
   LBFGS    37      5    0.124398    0.012058   0.002114  25.7723    0.024966    0.005926       
   LBFGS    38      5    0.123748    0.011475   0.002149  25.7867    0.009578    0.002747       
   LBFGS    39      5    0.123613    0.027377   0.004041  25.9075    0.031265    0.008276       
   LBFGS    40      5    0.123984    0.033237   0.004888  26.0768    0.048830    0.012828       
   LBFGS    41      5    0.120971    0.012155   0.002022  26.0769    0.027125    0.006845       
   LBFGS    42      5    0.120082    0.008651   0.001527  26.0806    0.007620    0.002389       
   LBFGS    43      5    0.119746    0.009622   0.002097  26.0956    0.011606    0.003720       
   LBFGS    44      5    0.119607    0.019260   0.003313  26.1406    0.029123    0.008423       
   LBFGS    45      5    0.119100    0.024057   0.004200  26.2392    0.045226    0.012773       
   LBFGS    46      5    0.115668    0.008293   0.001917  26.2337    0.011405    0.003957       
   LBFGS    47      5    0.115269    0.007583   0.001448  26.2336    0.008767    0.002922       
   LBFGS    48      5    0.114247    0.011228   0.002211  26.2406    0.008992    0.003144       
   LBFGS    49      5    0.112417    0.031132   0.003978  26.2717    0.013541    0.004152       
   LBFGS    50      5    0.109702    0.036635   0.004899  26.3388    0.020828    0.005837       
   LBFGS    51      5    0.108372    0.036070   0.003844  26.3455    0.009500    0.003915       
   LBFGS    52      5    0.107798    0.008314   0.001860  26.3551    0.009611    0.003020       
   LBFGS    53      5    0.107149    0.008344   0.001853  26.3694    0.009691    0.002855       
   LBFGS    54      5    0.105151    0.018627   0.002874  26.4165    0.009728    0.003536       
   LBFGS    55      5    0.101641    0.028420   0.004185  26.5093    0.016032    0.006136       
   LBFGS    56      5    0.100644    0.025935   0.003555  26.4832    0.012420    0.004981       
   LBFGS    57      5    0.099964    0.012311   0.002160  26.4708    0.009655    0.003789       
   LBFGS    58      5    0.098352    0.010778   0.002451  26.4574    0.009846    0.003605       
   LBFGS    59      5    0.096577    0.027298   0.003026  26.4758    0.009926    0.003375       
   LBFGS    60      5    0.091854    0.040571   0.004256  26.5545    0.010280    0.003493       
   LBFGS    61      5    0.091000    0.038783   0.004442  26.5803    0.010223    0.003261       
   LBFGS    62      5    0.090372    0.016811   0.002555  26.5947    0.010228    0.003166       
   LBFGS    63      5    0.088642    0.012581   0.002101  26.6264    0.010241    0.003237       
   LBFGS    64      5    0.085380    0.022006   0.003387  26.6774    0.010196    0.003507       
   LBFGS    65      5    0.081063    0.033908   0.004598  26.7521    0.009972    0.003872       
   LBFGS    66      5    0.079982    0.042879   0.005297  26.7218    0.010017    0.003656       
   LBFGS    67      5    0.079330    0.017907   0.002850  26.7105    0.010101    0.003427       
   LBFGS    68      5    0.076383    0.025618   0.003967  26.7055    0.010736    0.003914       
   LBFGS    69      5    0.074970    0.020974   0.003073  26.7325    0.011130    0.003669       
   LBFGS    70      5    0.068393    0.048333   0.004387  26.8693    0.012425    0.003918       
   LBFGS    71      5    0.067019    0.023702   0.003169  26.8557    0.012588    0.003891       
   LBFGS    72      5    0.065732    0.021199   0.002680  26.8647    0.012547    0.003901       
   LBFGS    73      5    0.057975    0.039519   0.004740  26.9743    0.012939    0.004445       
   LBFGS    74      5    0.056098    0.021496   0.003626  27.0100    0.013547    0.004449       
   LBFGS    75      5    0.054329    0.019497   0.002781  27.0410    0.013704    0.004350       
   LBFGS    76      5    0.047961    0.036133   0.004364  27.1620    0.014409    0.004669       
   LBFGS    77      5    0.039737    0.037395   0.005345  27.3342    0.014969    0.004877       
   LBFGS    78      5    0.038222    0.032107   0.004327  27.3295    0.014902    0.004634       
   LBFGS    79      5    0.037165    0.011884   0.002497  27.3342    0.014429    0.004398       
   LBFGS    80      5    0.033193    0.024015   0.003803  27.3868    0.012772    0.004336       
   LBFGS    81      5    0.029001    0.031985   0.004535  27.4714    0.011387    0.004199       
   LBFGS    82      5    0.022613    0.036398   0.005132  27.6365    0.009764    0.004013       
   LBFGS    83      5    0.021758    0.025298   0.003629  27.6482    0.009847    0.003676       
   LBFGS    84      5    0.021141    0.013811   0.002640  27.6605    0.009816    0.003538       
   LBFGS    85      5    0.017140    0.016810   0.003104  27.7877    0.009647    0.003383       

Possible intermediate minimum found at image(s): 2 
  => have a look at the .interp file.
  => it is often a good idea to divide the path calculation into smaller fragments. 

   LBFGS    86      5    0.015849    0.027029   0.003428  27.8196    0.009429    0.003227       
   LBFGS    87      5    0.011156    0.037886   0.004553  28.0019    0.008662    0.002957       
   LBFGS    88      5    0.010592    0.031840   0.005055  28.0364    0.008494    0.002885       
   LBFGS    89      5    0.010120    0.020428   0.003365  28.0655    0.008314    0.002726       
   LBFGS    90      5    0.008955    0.020400   0.003312  28.1570    0.007894    0.002589       
   LBFGS    91      5    0.007747    0.018224   0.003083  28.2680    0.007537    0.002524       
   LBFGS    92      5    0.005652    0.022015   0.003421  28.4651    0.007026    0.002333       
   LBFGS    93      5    0.005195    0.042920   0.005060  28.5191    0.006946    0.002279       
   LBFGS    94      5    0.004859    0.037277   0.004702  28.5658    0.006831    0.002211       
   LBFGS    95      5    0.003733    0.039006   0.005444  28.7719    0.006445    0.002156       
   LBFGS    96      5    0.003510    0.018249   0.002838  28.7958    0.006268    0.002060       
   LBFGS    97      5    0.003284    0.015209   0.002647  28.8226    0.006112    0.002012       
   LBFGS    98      5    0.002059    0.026296   0.002798  29.0278    0.005643    0.001934       
   LBFGS    99      5    0.001795    0.032153   0.002937  29.0670    0.005548    0.001914       
   LBFGS   100      5    0.001527    0.030673   0.002837  29.1073    0.005462    0.001887       
   LBFGS   101      5    0.000292    0.026366   0.002674  29.3099    0.005120    0.001812       
   LBFGS   102      5    0.000038    0.034330   0.003217  29.3540    0.005064    0.001819       
   LBFGS   103      5    -0.000193    0.029478   0.002839  29.3948    0.005012    0.001791       
   LBFGS   104      5    -0.000936    0.014273   0.001923  29.5525    0.004841    0.001714       
   LBFGS   105      5    -0.001356    0.051302   0.004688  29.6998    0.005043    0.001920       
   LBFGS   106      5    -0.001817    0.050444   0.004783  29.8628    0.005322    0.001955       
   LBFGS   107      5    -0.002521    0.052720   0.004966  30.1154    0.004680    0.001857       
   LBFGS   108      5    -0.002657    0.014144   0.001744  30.1420    0.004308    0.001596       
   LBFGS   109      5    -0.002783    0.015952   0.001808  30.1809    0.004276    0.001596       
   LBFGS   110      5    -0.003513    0.017694   0.002262  30.4163    0.004099    0.001569       
   LBFGS   111      5    -0.003793    0.044845   0.004191  30.5008    0.004023    0.001631       
   LBFGS   112      5    -0.004052    0.040969   0.003975  30.5688    0.003951    0.001628       
   LBFGS   113      5    -0.004754    0.034172   0.004085  30.7935    0.003750    0.001665       
   LBFGS   114      5    -0.004911    0.030224   0.003290  30.8297    0.003693    0.001527       
   LBFGS   115      5    -0.005067    0.027256   0.003116  30.8751    0.003643    0.001526       
   LBFGS   116      5    -0.005689    0.031395   0.003048  31.0987    0.003495    0.001464       

Possible intermediate minimum found at image(s): 2 
  => have a look at the .interp file.
  => it is often a good idea to divide the path calculation into smaller fragments. 

   LBFGS   117      5    -0.005828    0.027687   0.002566  31.1513    0.003469    0.001423       
   LBFGS   118      5    -0.005974    0.028907   0.002644  31.2101    0.003438    0.001420       
   LBFGS   119      5    -0.006684    0.030606   0.002869  31.5239    0.003277    0.001409       
   LBFGS   120      5    -0.006824    0.028435   0.002643  31.5850    0.003236    0.001382       
   LBFGS   121      5    -0.006953    0.025466   0.002406  31.6437    0.003202    0.001378       
   LBFGS   122      5    -0.007675    0.015535   0.001955  31.9996    0.003647    0.001382       
   LBFGS   123      5    -0.007893    0.035318   0.003247  32.1027    0.003927    0.001366       
   LBFGS   124      5    -0.008108    0.033202   0.003086  32.2039    0.004181    0.001382       
   LBFGS   125      5    -0.008851    0.028080   0.002938  32.5691    0.005012    0.001444       
   LBFGS   126      5    -0.008977    0.020069   0.002132  32.6143    0.005105    0.001399       
   LBFGS   127      5    -0.009097    0.018017   0.001921  32.6625    0.005227    0.001398       
   LBFGS   128      5    -0.009922    0.012168   0.001685  33.0223    0.006291    0.001519       
   LBFGS   129      5    -0.010246    0.035527   0.003317  33.1540    0.006942    0.001534       
   LBFGS   130      5    -0.010558    0.028254   0.002816  33.2846    0.007514    0.001655       
   LBFGS   131      5    -0.011555    0.016570   0.002738  33.6978    0.009125    0.002000       
   LBFGS   132      5    -0.011915    0.028875   0.002687  33.7796    0.009411    0.001829       
   LBFGS   133      5    -0.012232    0.007424   0.001496  33.8731    0.009841    0.001973       
   LBFGS   134      5    -0.012969    0.013040   0.002379  34.0878    0.010915    0.002218       
   LBFGS   135      5    -0.014707    0.029449   0.003896  34.5501    0.013615    0.002712       
   LBFGS   136      5    -0.015167    0.026921   0.002683  34.5959    0.014583    0.002674       
   LBFGS   137      5    -0.015607    0.014392   0.001527  34.6504    0.015360    0.002775       
   LBFGS   138      5    -0.017523    0.013460   0.001852  34.8972    0.016761    0.003102       
   LBFGS   139      5    -0.020227    0.019289   0.002905  35.1650    0.015098    0.002956       
   LBFGS   140      5    -0.020981    0.026632   0.002628  35.1965    0.013317    0.002612       
Warning: path is strictly decreasing in energy   LBFGS   141      5    -0.021607    0.009771   0.001252  35.2304    0.010873    0.002292       
   LBFGS   142      5    -0.022563    0.007546   0.001559  35.3060    0.004047    0.001608       
   LBFGS   143      5    -0.022655    0.019743   0.002550  35.4542    0.017241    0.003593       
   LBFGS   144      5    -0.022062    0.027667   0.003110  35.5945    0.031711    0.005748       
   LBFGS   145      5    -0.023611    0.015899   0.002146  35.5600    0.015640    0.002866       
   LBFGS   146      5    -0.024148    0.008337   0.001209  35.5418    0.007215    0.001755       
   LBFGS   147      5    -0.024570    0.004800   0.000902  35.5382    0.006166    0.001553       
   LBFGS   148      5    -0.024432    0.012785   0.001774  35.5795    0.012211    0.002485       
   LBFGS   149      5    -0.023713    0.015880   0.002302  35.6757    0.018515    0.003385       
   LBFGS   150      5    -0.024690    0.022252   0.002305  35.7288    0.015765    0.002798       
   LBFGS   151      5    -0.025432    0.010110   0.001323  35.7862    0.011842    0.002142       
   LBFGS   152      5    -0.026133    0.008688   0.001263  35.9472    0.005326    0.001436       
   LBFGS   153      5    -0.025724    0.015713   0.001724  36.0927    0.016879    0.003303       
   LBFGS   154      5    -0.024555    0.022034   0.001983  36.3590    0.032759    0.005824       
   LBFGS   155      5    -0.026299    0.017248   0.001689  36.3346    0.015223    0.002867       
   LBFGS   156      5    -0.026852    0.008102   0.000910  36.3275    0.006855    0.001729       
   LBFGS   157      5    -0.027086    0.003407   0.000607  36.3466    0.006350    0.001678       
   LBFGS   158      5    -0.026532    0.010050   0.001201  36.4280    0.014368    0.002824       
   LBFGS   159      5    -0.024990    0.011709   0.001328  36.6182    0.021905    0.004212       
   LBFGS   160      5    -0.026676    0.026263   0.002315  36.6937    0.017160    0.002993       
   LBFGS   161      5    -0.027521    0.015212   0.001467  36.7564    0.012003    0.002082       
   LBFGS   162      5    -0.027615    0.004113   0.000675  36.9592    0.011916    0.002568       
   LBFGS   163      5    -0.028213    0.013673   0.001370  36.9691    0.004210    0.001203       
   LBFGS   164      5    -0.027974    0.006657   0.000802  37.0084    0.009203    0.002039       
   LBFGS   165      5    -0.027720    0.008349   0.000956  37.0717    0.011790    0.002612       
   LBFGS   166      5    -0.026878    0.011703   0.001337  37.2965    0.016605    0.003939       
   LBFGS   167      5    -0.028091    0.015357   0.001755  37.3498    0.011768    0.002492       
   LBFGS   168      5    -0.028602    0.008626   0.000996  37.3958    0.006879    0.001495       
   LBFGS   169      5    -0.028584    0.004152   0.000646  37.5181    0.007459    0.001766       
   LBFGS   170      5    -0.028487    0.011454   0.000982  37.5840    0.009660    0.002144       
   LBFGS   171      5    -0.028342    0.028661   0.002080  37.7735    0.011941    0.002676       
   LBFGS   172      5    -0.028142    0.036742   0.002623  38.0301    0.013146    0.003205       
   LBFGS   173      5    -0.028539    0.005859   0.000638  38.0273    0.010071    0.002532       
   LBFGS   174      5    -0.028810    0.005706   0.000594  38.0266    0.007546    0.001998       
   LBFGS   175      5    -0.029036    0.007977   0.001216  38.0632    0.006025    0.001861       
   LBFGS   176      5    -0.028489    0.009886   0.001499  38.1273    0.010441    0.002932       
   LBFGS   177      5    -0.028718    0.005109   0.000855  38.1529    0.009428    0.002512       
   LBFGS   178      5    -0.029170    0.007748   0.001056  38.3631    0.006837    0.001722       
   LBFGS   179      5    -0.029325    0.003811   0.000676  38.3769    0.004786    0.001280       
   LBFGS   180      5    -0.029415    0.003287   0.000571  38.3888    0.003200    0.000986       
   LBFGS   181      5    -0.029064    0.006048   0.000921  38.5049    0.009539    0.002152       
   LBFGS   182      5    -0.028739    0.011734   0.001457  38.5754    0.010788    0.002694       
   LBFGS   183      5    -0.029511    0.015188   0.001906  38.4858    0.002546    0.000973       
   LBFGS   184      5    -0.029283    0.006412   0.000896  38.5045    0.006052    0.001627       
   LBFGS   185      4    0.000106    0.007153   0.000881  38.5586    0.002900    0.001330       
   LBFGS   186      4    0.000106    0.007154   0.000881  38.5586    0.002900    0.001330       
   LBFGS   187      4    0.000139    0.007189   0.001003  38.3452    0.002899    0.001311       
   LBFGS   188      4    0.000183    0.024743   0.003347  38.1764    0.002897    0.001300       
   LBFGS   189      4    0.000212    0.006150   0.000975  37.9913    0.002890    0.001261       
   LBFGS   190      4    0.000242    0.011808   0.001779  37.8248    0.002884    0.001243       
   LBFGS   191      4    0.000269    0.010125   0.001416  37.6683    0.002877    0.001222       
   LBFGS   192      4    0.000293    0.034337   0.004080  37.5212    0.002867    0.001211       
   LBFGS   193      4    0.000311    0.016087   0.002278  37.3849    0.002855    0.001181       
   LBFGS   194      4    0.000324    0.018474   0.002577  37.2603    0.002841    0.001165       
   LBFGS   195      4    0.000327    0.014585   0.002209  37.1450    0.002823    0.001140       
   LBFGS   196      4    0.000318    0.011276   0.001378  37.0362    0.002800    0.001119       
   LBFGS   197      4    0.000284    0.011021   0.001313  36.9331    0.002768    0.001101       
   LBFGS   198      4    0.000102    0.025674   0.004119  36.8197    0.002682    0.001153       
   LBFGS   199      4    0.000015    0.034658   0.004817  36.7700    0.002646    0.001182       
   LBFGS   200      4    -0.000076    0.023191   0.003730  36.7318    0.002697    0.001175       
   LBFGS   201      4    -0.000113    0.007222   0.001223  36.7532    0.002749    0.001119       
   LBFGS   202      4    -0.000173    0.015784   0.002543  36.7960    0.002874    0.001152       
   LBFGS   203      4    -0.000343    0.028332   0.004954  36.9195    0.003356    0.001254       
   LBFGS   204      4    -0.000428    0.016817   0.001871  36.9466    0.003343    0.001201       
   LBFGS   205      4    -0.000516    0.008856   0.001754  36.9789    0.003499    0.001222       
   LBFGS   206      4    -0.000918    0.013838   0.002326  37.1262    0.004237    0.001357       
   LBFGS   207      4    -0.001080    0.016176   0.002765  37.1725    0.004421    0.001402       
   LBFGS   208      4    -0.001267    0.019140   0.002992  37.2251    0.004635    0.001450       
   LBFGS   209      4    -0.001739    0.019640   0.003288  37.3660    0.005057    0.001540       
   LBFGS   210      4    -0.001836    0.010229   0.001501  37.3903    0.005085    0.001539       
   LBFGS   211      4    -0.001937    0.008234   0.001434  37.4174    0.005103    0.001543       
   LBFGS   212      4    -0.002480    0.011904   0.001818  37.5753    0.005213    0.001582       
   LBFGS   213      4    -0.002621    0.012932   0.001923  37.6104    0.005209    0.001586       
   LBFGS   214      4    -0.002771    0.014754   0.001994  37.6487    0.005215    0.001595       
   LBFGS   215      4    -0.003368    0.016746   0.002215  37.8164    0.005262    0.001633       
   LBFGS   216      4    -0.003469    0.008467   0.001381  37.8407    0.005288    0.001636       
   LBFGS   217      4    -0.003568    0.007359   0.001190  37.8647    0.005308    0.001642       
   LBFGS   218      4    -0.004351    0.012206   0.002109  38.0755    0.005459    0.001708       
   LBFGS   219      4    -0.004451    0.011751   0.001280  38.0924    0.005462    0.001696       
   LBFGS   220      4    -0.004557    0.007767   0.001026  38.1139    0.005477    0.001703       
   LBFGS   221      4    -0.005239    0.016742   0.002484  38.2686    0.005588    0.001765       
   LBFGS   222      4    -0.006239    0.024061   0.003607  38.5344    0.005752    0.001863       
   LBFGS   223      4    -0.006335    0.017199   0.001675  38.5514    0.005847    0.001828       
   LBFGS   224      4    -0.006426    0.003439   0.000615  38.5680    0.005927    0.001833       
   LBFGS   225      4    -0.006607    0.006190   0.000891  38.5988    0.006052    0.001847       
   LBFGS   226      4    -0.007281    0.018752   0.002308  38.7188    0.006347    0.001894       
   LBFGS   227      4    -0.008499    0.033033   0.003927  38.9679    0.006330    0.001972       
   LBFGS   228      4    -0.008600    0.017740   0.002095  38.9752    0.006192    0.001871       
   LBFGS   229      4    -0.008697    0.008269   0.001020  38.9867    0.006091    0.001854       
   LBFGS   230      4    -0.008956    0.003172   0.000599  39.0219    0.005917    0.001837       
   LBFGS   231      4    -0.009363    0.005982   0.001049  39.0821    0.005719    0.001799       
   LBFGS   232      4    -0.010592    0.017870   0.002114  39.3012    0.005863    0.001891       
   LBFGS   233      4    -0.010695    0.014972   0.001362  39.3157    0.005699    0.001711       
   LBFGS   234      4    -0.010792    0.009034   0.000816  39.3321    0.005541    0.001696       
   LBFGS   235      4    -0.011159    0.005588   0.000862  39.3945    0.005381    0.001672       
   LBFGS   236      4    -0.011664    0.010620   0.001608  39.4847    0.005320    0.001568       
   LBFGS   237      4    -0.012748    0.021066   0.002749  39.7205    0.004906    0.001453       
   LBFGS   238      4    -0.012826    0.019864   0.002054  39.7271    0.004918    0.001433       
   LBFGS   239      4    -0.012898    0.009029   0.000951  39.7372    0.004920    0.001381       

Possible intermediate minimum found at image(s): 3 
  => have a look at the .interp file.
  => it is often a good idea to divide the path calculation into smaller fragments. 

   LBFGS   240      4    -0.013060    0.002229   0.000408  39.7638    0.004877    0.001333       
   LBFGS   241      4    -0.013242    0.005060   0.000663  39.7981    0.004802    0.001313       
   LBFGS   242      4    -0.014155    0.013372   0.001690  40.0113    0.004753    0.001258       
   LBFGS   243      4    -0.014938    0.020137   0.002191  40.2730    0.004984    0.001231       
   LBFGS   244      4    -0.014991    0.015547   0.001574  40.2840    0.004622    0.001063       
   LBFGS   245      4    -0.015024    0.007958   0.000898  40.2931    0.004370    0.001016       
   LBFGS   246      4    -0.015124    0.001802   0.000373  40.3236    0.003695    0.000962       
   LBFGS   247      4    -0.015206    0.004019   0.000498  40.3476    0.003476    0.000937       
   LBFGS   248      4    -0.015697    0.007893   0.001090  40.5230    0.002604    0.000909       
   LBFGS   249      4    -0.016198    0.021184   0.002125  40.7982    0.002627    0.000851       
   LBFGS   250      4    -0.016212    0.005759   0.000904  40.8011    0.002591    0.000755       
   LBFGS   251      4    -0.016224    0.004648   0.000757  40.8044    0.002564    0.000739       
   LBFGS   252      4    -0.016296    0.015902   0.001539  40.8423    0.002443    0.000823       
   LBFGS   253      4    -0.016324    0.006254   0.000711  40.8571    0.002411    0.000699       
   LBFGS   254      4    -0.016323    0.002108   0.000352  40.8566    0.002425    0.000690       
   LBFGS   255      4    -0.016350    0.001979   0.000270  40.8739    0.002417    0.000682       
   LBFGS   256      4    -0.016474    0.009725   0.000932  40.9665    0.002369    0.000691       
   LBFGS   257      4    -0.016685    0.017293   0.001691  41.1993    0.002883    0.000859       
   LBFGS   258      4    -0.016802    0.019947   0.002061  41.4781    0.004929    0.001168       
   LBFGS   259      4    -0.016833    0.006047   0.000929  41.4801    0.002590    0.000869       
   LBFGS   260      4    -0.016849    0.004727   0.000753  41.4823    0.002426    0.000753       
   LBFGS   261      4    -0.016887    0.009671   0.001120  41.5058    0.003688    0.000980       
   LBFGS   262      4    -0.016912    0.007560   0.000812  41.5232    0.001392    0.000605       

                                .--------------------.
          ----------------------| CI-NEB convergence |-------------------------
          Item                value                   Tolerance       Converged
          ---------------------------------------------------------------------
          RMS(Fp)             0.0008117954            0.0100000000      YES
          MAX(|Fp|)           0.0075604108            0.0200000000      YES
          RMS(FCI)            0.0006048519            0.0010000000      YES
          MAX(|FCI|)          0.0013916911            0.0020000000      YES
          ---------------------------------------------------------------------

The elastic band and climbing image have converged successfully to a MEP in 262 iterations!


                    *********************H U R R A Y*********************
                    ***        THE NEB OPTIMIZATION HAS CONVERGED     ***
                    *****************************************************



---------------------------------------------------------------
                         PATH SUMMARY              
---------------------------------------------------------------
All forces in Eh/Bohr.

Image Dist.(Ang.)    E(Eh)   dE(kcal/mol)  max(|Fp|)  RMS(Fp)
  0     0.000    -990.26007      0.00       0.06827   0.01718 <= CI
  1     2.378    -990.27484     -9.27       0.00089   0.00028
  2     4.798    -990.27711    -10.69       0.00053   0.00015
  3     7.289    -990.27839    -11.50       0.00292   0.00097
  4     9.903    -990.27698    -10.61       0.00150   0.00051
  5    12.341    -990.29080    -19.29       0.00265   0.00104
  6    14.714    -990.30647    -29.12       0.00756   0.00193
  7    17.093    -990.30428    -27.74       0.00074   0.00025
  8    19.516    -990.30472    -28.02       0.00030   0.00012
  9    21.973    -990.30552    -28.52       0.00351   0.00126

Straight line distance between images along the path:
        D( 0- 1) =   2.3783 Ang.
        D( 1- 2) =   2.4194 Ang.
        D( 2- 3) =   2.4918 Ang.
        D( 3- 4) =   2.6139 Ang.
        D( 4- 5) =   2.4372 Ang.
        D( 5- 6) =   2.3738 Ang.
        D( 6- 7) =   2.3788 Ang.
        D( 7- 8) =   2.4228 Ang.
        D( 8- 9) =   2.4571 Ang.

---------------------------------------------------------------
               INFORMATION ABOUT SADDLE POINT     
---------------------------------------------------------------

Climbing image                            ....  0 
Energy                                    ....  -990.26006702 Eh
Max. abs. force                           ....  6.8811e-02 Eh/Bohr

-----------------------------------------
  SADDLE POINT (ANGSTROEM)
-----------------------------------------
C      2.285937     1.253897    -1.074288 
N      3.408855     1.056929    -0.458255 
C      3.478361     1.047074     0.877832 
C      2.373661     1.241089     1.675583 
C      1.179407     1.450370     1.016750 
C      1.099434     1.462265    -0.337271 
N     -0.165885     1.684921    -0.988869 
O     -0.256963     1.700258    -2.233421 
O     -1.211835     1.869204    -0.307832 
F      2.279207     1.254518    -2.424271 
H      4.462227     0.876418     1.300586 
H      2.436959     1.230161     2.755287 
H      0.260851     1.611944     1.456717 
C     -4.431978    -3.623099    -0.209241 
H     -4.528299    -4.516081    -0.833051 
H     -5.355915    -3.041833    -0.273695 
H     -4.275988    -3.930562     0.828589 
S     -3.038036    -2.627474    -0.771149 

-----------------------------------------
  FORCES (Eh/Bohr)
-----------------------------------------
C     -0.012162     0.001796     0.005605 
N      0.010716    -0.001720    -0.020142 
C     -0.000068    -0.000184    -0.000002 
C      0.000009     0.000018    -0.000049 
C      0.012420    -0.002166    -0.000784 
C      0.016737    -0.002706    -0.039021 
N     -0.068811     0.011968    -0.026782 
O      0.017239    -0.003052     0.041458 
O      0.049949    -0.008771    -0.012008 
F      0.007488    -0.001373     0.019728 
H      0.000006    -0.000006     0.000005 
H      0.000012     0.000060     0.000002 
H     -0.033628     0.005858     0.031976 
C     -0.001558    -0.001291     0.000524 
H     -0.003561    -0.001271     0.002363 
H     -0.002399    -0.003619     0.001682 
H     -0.004112    -0.002170    -0.000047 
S      0.011923     0.008677    -0.004630 

-----------------------------------------
  UNIT TANGENT
-----------------------------------------
C     -0.157184    -0.211137     0.027224 
N     -0.137367    -0.233333    -0.013735 
C     -0.088782    -0.108862    -0.031074 
C     -0.038848     0.036949    -0.026906 
C     -0.058140     0.056282     0.014418 
C     -0.105912    -0.070715     0.019788 
N     -0.121588    -0.047691     0.040535 
O     -0.122739    -0.050172     0.054586 
O     -0.072990    -0.034970     0.070484 
F     -0.209992    -0.344074     0.053792 
H     -0.088027    -0.128096    -0.041687 
H      0.017944     0.132303    -0.042804 
H     -0.012848     0.167230     0.072860 
C      0.247205     0.162556    -0.051414 
H      0.273902     0.247713    -0.145532 
H      0.217727     0.105994     0.014061 
H      0.252543     0.039766    -0.109780 
S      0.205095     0.280254     0.095187 
 => Unit tangent is an approximation to the TS mode at the saddle point
No barrier was found. Skipping NEB-TS run here.
----------
STATISTICS
----------

For the individual parts of the NEB, NEB-CI or NEB-TS run:

Number of iterations:
     NEB                               ... 263  100.0%
Number of SCF / gradient calculations:
     NEB                               ... 2658  100.0%

----------
 TIMINGS
----------

For the individual parts of the NEB, NEB-CI or NEB-TS run:

Total                                  ...    74968.712 sec
NEB                                    ...    74968.712 sec  100.0%

[file orca_main/run.cpp, line 12281]: ORCA finished with error return - aborting the run
