
                                 *****************
                                 * O   R   C   A *
                                 *****************

                                            #,                                       
                                            ###                                      
                                            ####                                     
                                            #####                                    
                                            ######                                   
                                           ########,                                 
                                     ,,################,,,,,                         
                               ,,#################################,,                 
                          ,,##########################################,,             
                       ,#########################################, ''#####,          
                    ,#############################################,,   '####,        
                  ,##################################################,,,,####,       
                ,###########''''           ''''###############################       
              ,#####''   ,,,,##########,,,,          '''####'''          '####       
            ,##' ,,,,###########################,,,                        '##       
           ' ,,###''''                  '''############,,,                           
         ,,##''                                '''############,,,,        ,,,,,,###''
      ,#''                                            '''#######################'''  
     '                                                          ''''####''''         
             ,#######,   #######,   ,#######,      ##                                
            ,#'     '#,  ##    ##  ,#'     '#,    #''#        ######   ,####,        
            ##       ##  ##   ,#'  ##            #'  '#       #        #'  '#        
            ##       ##  #######   ##           ,######,      #####,   #    #        
            '#,     ,#'  ##    ##  '#,     ,#' ,#      #,         ##   #,  ,#        
             '#######'   ##     ##  '#######'  #'      '#     #####' # '####'        



                  #######################################################
                  #                        -***-                        #
                  #          Department of theory and spectroscopy      #
                  #    Directorship and core code : Frank Neese         #
                  #        Max Planck Institute fuer Kohlenforschung    #
                  #                Kaiser Wilhelm Platz 1               #
                  #                 D-45470 Muelheim/Ruhr               #
                  #                      Germany                        #
                  #                                                     #
                  #                  All rights reserved                #
                  #                        -***-                        #
                  #######################################################


                         Program Version 5.0.4 -  RELEASE  -


 With contributions from (in alphabetic order):
   Daniel Aravena         : Magnetic Suceptibility
   Michael Atanasov       : Ab Initio Ligand Field Theory (pilot matlab implementation)
   Alexander A. Auer      : GIAO ZORA, VPT2 properties, NMR spectrum
   Ute Becker             : Parallelization
   Giovanni Bistoni       : ED, misc. LED, open-shell LED, HFLD
   Martin Brehm           : Molecular dynamics
   Dmytro Bykov           : SCF Hessian
   Vijay G. Chilkuri      : MRCI spin determinant printing, contributions to CSF-ICE
   Dipayan Datta          : RHF DLPNO-CCSD density
   Achintya Kumar Dutta   : EOM-CC, STEOM-CC
   Dmitry Ganyushin       : Spin-Orbit,Spin-Spin,Magnetic field MRCI
   Miquel Garcia          : C-PCM and meta-GGA Hessian, CC/C-PCM, Gaussian charge scheme
   Yang Guo               : DLPNO-NEVPT2, F12-NEVPT2, CIM, IAO-localization
   Andreas Hansen         : Spin unrestricted coupled pair/coupled cluster methods
   Benjamin Helmich-Paris : MC-RPA, TRAH-SCF, COSX integrals
   Lee Huntington         : MR-EOM, pCC
   Robert Izsak           : Overlap fitted RIJCOSX, COSX-SCS-MP3, EOM
   Marcus Kettner         : VPT2
   Christian Kollmar      : KDIIS, OOCD, Brueckner-CCSD(T), CCSD density, CASPT2, CASPT2-K
   Simone Kossmann        : Meta GGA functionals, TD-DFT gradient, OOMP2, MP2 Hessian
   Martin Krupicka        : Initial AUTO-CI
   Lucas Lang             : DCDCAS
   Marvin Lechner         : AUTO-CI (C++ implementation), FIC-MRCC
   Dagmar Lenk            : GEPOL surface, SMD
   Dimitrios Liakos       : Extrapolation schemes; Compound Job, initial MDCI parallelization
   Dimitrios Manganas     : Further ROCIS development; embedding schemes
   Dimitrios Pantazis     : SARC Basis sets
   Anastasios Papadopoulos: AUTO-CI, single reference methods and gradients
   Taras Petrenko         : DFT Hessian,TD-DFT gradient, ASA, ECA, R-Raman, ABS, FL, XAS/XES, NRVS
   Peter Pinski           : DLPNO-MP2, DLPNO-MP2 Gradient
   Christoph Reimann      : Effective Core Potentials
   Marius Retegan         : Local ZFS, SOC
   Christoph Riplinger    : Optimizer, TS searches, QM/MM, DLPNO-CCSD(T), (RO)-DLPNO pert. Triples
   Tobias Risthaus        : Range-separated hybrids, TD-DFT gradient, RPA, STAB
   Michael Roemelt        : Original ROCIS implementation
   Masaaki Saitow         : Open-shell DLPNO-CCSD energy and density
   Barbara Sandhoefer     : DKH picture change effects
   Avijit Sen             : IP-ROCIS
   Kantharuban Sivalingam : CASSCF convergence, NEVPT2, FIC-MRCI
   Bernardo de Souza      : ESD, SOC TD-DFT
   Georgi Stoychev        : AutoAux, RI-MP2 NMR, DLPNO-MP2 response
   Willem Van den Heuvel  : Paramagnetic NMR
   Boris Wezisla          : Elementary symmetry handling
   Frank Wennmohs         : Technical directorship


 We gratefully acknowledge several colleagues who have allowed us to
 interface, adapt or use parts of their codes:
   Stefan Grimme, W. Hujo, H. Kruse, P. Pracht,  : VdW corrections, initial TS optimization,
                  C. Bannwarth, S. Ehlert          DFT functionals, gCP, sTDA/sTD-DF
   Ed Valeev, F. Pavosevic, A. Kumar             : LibInt (2-el integral package), F12 methods
   Garnet Chan, S. Sharma, J. Yang, R. Olivares  : DMRG
   Ulf Ekstrom                                   : XCFun DFT Library
   Mihaly Kallay                                 : mrcc  (arbitrary order and MRCC methods)
   Jiri Pittner, Ondrej Demel                    : Mk-CCSD
   Frank Weinhold                                : gennbo (NPA and NBO analysis)
   Christopher J. Cramer and Donald G. Truhlar   : smd solvation model
   Lars Goerigk                                  : TD-DFT with DH, B97 family of functionals
   V. Asgeirsson, H. Jonsson                     : NEB implementation
   FAccTs GmbH                                   : IRC, NEB, NEB-TS, DLPNO-Multilevel, CI-OPT
                                                   MM, QMMM, 2- and 3-layer-ONIOM, Crystal-QMMM,
                                                   LR-CPCM, SF, NACMEs, symmetry and pop. for TD-DFT,
                                                   nearIR, NL-DFT gradient (VV10), updates on ESD,
                                                   ML-optimized integration grids
   S Lehtola, MJT Oliveira, MAL Marques          : LibXC Library
   Liviu Ungur et al                             : ANISO software


 Your calculation uses the libint2 library for the computation of 2-el integrals
 For citations please refer to: http://libint.valeyev.net

 Your ORCA version has been built with support for libXC version: 5.1.0
 For citations please refer to: https://tddft.org/programs/libxc/

 This ORCA versions uses:
   CBLAS   interface :  Fast vector & matrix operations
   LAPACKE interface :  Fast linear algebra routines
   SCALAPACK package :  Parallel linear algebra routines
   Shared memory     :  Shared parallel matrices
   BLAS/LAPACK       :  OpenBLAS 0.3.15  USE64BITINT DYNAMIC_ARCH NO_AFFINITY SkylakeX SINGLE_THREADED
        Core in use  :  SkylakeX
   Copyright (c) 2011-2014, The OpenBLAS Project




***************************************
The coordinates will be read from file: reactants.xyz
***************************************


Your calculation utilizes the SMD solvation module
Please cite in your paper:
A.V. Marenich, C.J. Cramer, D.G. Truhlar J. Phys. Chem. B, 113, (2009), 6378 

XCFun DFT library Copyright 2009-2010 Ulf Ekstrom and contributors.
See http://admol.org/xcfun for more information.
This is free software; see the source code for copying conditions.
There is ABSOLUTELY NO WARRANTY; not even for MERCHANTABILITY or FITNESS FOR A PARTICULAR PURPOSE.
For details see the documentation.
Scientific users of this library should cite U. Ekstrom, L. Visscher, R. Bast, A. J. Thorvaldsen and K. Ruud;
J.Chem.Theor.Comp. 2010, DOI: 10.1021/ct100117s
XCFun Version 0.99 

================================================================================

----- Orbital basis set information -----
Your calculation utilizes the basis: 6-311++G**
   H, Li - Ne  : R. Krishnan, J. S. Binkley, R. Seeger and J. A. Pople, J. Chem. Phys. 72, 650 (1980).
   Na - Ar     : A. D. McLean and G. S. Chandler J. Chem. Phys. 72, 5639, (1980).
   K  - Ca     : J.-P. Blaudeau, M. P. McGrath, L. A. Curtiss and L. Radom, J. Chem. Phys. 107, 5016 (1997).
   Ga - Kr     : L. A. Curtiss, M. P. McGrath, J.-P. Blandeau, N. E. Davis, R. C. Binning and L. Radom, J. Chem. Phys. 103, 6104 (1995).
   Pol./Diff.
   H, Li - Cl  : T. Clark, J. Chandrasekhar and P. v. R. Schleyer, J. Comp. Chem. 4, 294 (1983).
   H - Ne      : M. J. Frisch, J. A. Pople and J. S. Binkley, J. Chem. Phys. 80, 3265 (1984).

----- AuxJ basis set information -----
Your calculation utilizes the auxiliary basis: def2/J
   F. Weigend, Phys. Chem. Chem. Phys. 8, 1057 (2006).

================================================================================
                                        WARNINGS
                       Please study these warnings very carefully!
================================================================================


WARNING: Geometry Optimization
  ===> : Switching off AutoStart
         For restart on a previous wavefunction, please use MOREAD

INFO   : the flag for use of the SHARK integral package has been found!

================================================================================
                                       INPUT FILE
================================================================================
NAME = structure_opt.inp
|  1> !wb97x 6-311++G** OPT CPCM(WATER)
|  2> %maxcore  3500
|  3> %pal
|  4> nprocs 24
|  5> end
|  6> %cpcm
|  7> smd true
|  8> SMDsolvent "water"
|  9> end
| 10> %geom
| 11> ConstrainFragments {1} end
| 12> ConstrainFragments {4} end
| 13> ConnectFragments
| 14> { 1 2 C 5 7 }
| 15> { 1 2 C 0 9 }
| 16> { 2 3 C 13 5 }
| 17> { 3 4 C 13 17 }
| 18> end
| 19> end
| 20> * XYZfile -1 1 reactants.xyz
| 21> %geom
| 22> Fragments
| 23> 1 {0:5} end
| 24> 2 {6:12} end
| 25> 3 {13:16} end
| 26> 4 {17} end
| 27> end
| 28> end
| 29> 
| 30>                          ****END OF INPUT****
================================================================================

                       *****************************
                       * Geometry Optimization Run *
                       *****************************

Geometry optimization settings:
Update method            Update   .... BFGS
Choice of coordinates    CoordSys .... Z-matrix Internals
Initial Hessian          InHess   .... Almoef's Model

Convergence Tolerances:
Energy Change            TolE     ....  5.0000e-06 Eh
Max. Gradient            TolMAXG  ....  3.0000e-04 Eh/bohr
RMS Gradient             TolRMSG  ....  1.0000e-04 Eh/bohr
Max. Displacement        TolMAXD  ....  4.0000e-03 bohr
RMS Displacement         TolRMSD  ....  2.0000e-03 bohr
Strict Convergence                ....  False
------------------------------------------------------------------------------
                        ORCA OPTIMIZATION COORDINATE SETUP
------------------------------------------------------------------------------

The optimization will be done in new redundant internal coordinates
Making redundant internal coordinates   ...  (new redundants) done
Evaluating the initial hessian          ...  (Almloef) done
Evaluating the coordinates              ...  done
Calculating the B-matrix                .... done
Calculating the G-matrix                .... done
Diagonalizing the G-matrix              .... done
Imposing constraints:
 Iter   0:  RMS(Cart)=    0.0000000000 RMS(Int)=    0.0000000000
CONVERGED
Small eigenvalue found = 3.130e-03
Small eigenvalue found = 8.338e-03
Small eigenvalue found = 1.185e-02
The first mode is                       ....   56
The number of degrees of freedom        ....   48
Storing new coordinates                 .... done

    -----------------------------------------------------------------
                    Redundant Internal Coordinates


    -----------------------------------------------------------------
         Definition                    Initial Value    Approx d2E/dq
    -----------------------------------------------------------------
      1. B(N   1,C   0)                  1.3611         0.622347   
      2. B(C   2,N   1)                  1.3582         0.628875   
      3. B(C   3,C   2)                  1.3949         0.613658   
      4. B(C   4,C   3)                  1.3934         0.616971   
      5. B(C   5,C   0)                  1.4122         0.575774   
      6. B(C   5,C   4)                  1.4061         0.588917   
      7. B(O   7,C   5)                  2.3435         0.016853 C 
      8. B(O   7,N   6)                  1.2480         0.844503   
      9. B(O   8,N   6)                  1.3769         0.525866   
     10. B(F   9,C   0)                  1.3500         0.602260 C 
     11. B(F   9,N   6)                  2.8678         0.002044   
     12. B(F   9,O   7)                  2.5821         0.005837   
     13. B(H  11,H  10)                  2.4818         0.000415   
     14. B(H  12,O   8)                  2.5152         0.001717   
     15. B(H  12,H  11)                  2.4663         0.000439   
     16. B(H  12,N   6)                  2.7029         0.000861   
     17. B(C  13,H  10)                  7.1638         0.000000 C 
     18. B(H  14,C  13)                  1.0943         0.354423   
     19. B(H  15,C  13)                  1.0933         0.355810   
     20. B(H  16,C  13)                  1.0934         0.355635   
     21. B(S  17,C  13)                  1.8028         0.369754 C 
     22. A(C   5,C   0,F   9)          121.1725         0.421471 C 
     23. A(N   1,C   0,C   5)          120.1571         0.425830   
     24. A(N   1,C   0,F   9)          118.6704         0.424592 C 
     25. A(C   0,N   1,C   2)          121.9524         0.429796   
     26. A(N   1,C   2,C   3)          120.0262         0.431531   
     27. A(C   2,C   3,C   4)          119.3498         0.432882   
     28. A(C   3,C   4,C   5)          120.4718         0.429694   
     29. A(C   4,C   5,O   7)          147.4261         0.238582 C 
     30. A(C   0,C   5,O   7)           94.5313         0.237820 C 
     31. A(C   0,C   5,C   4)          118.0425         0.424407   
     32. A(O   8,N   6,H  12)           67.2752         0.152046   
     33. A(O   7,N   6,H  12)          174.2234         0.159181   
     34. A(O   7,N   6,O   8)          118.5014         0.433822   
     35. A(F   9,N   6,H  12)          110.0144         0.106848   
     36. A(O   7,N   6,F   9)           64.2090         0.186619   
     37. A(N   6,O   7,F   9)           89.9947         0.212791   
     38. A(C   5,O   7,N   6)           31.7456         0.248611 C 
     39. A(C   5,O   7,F   9)           58.2491         0.140475 C 
     40. A(N   6,O   8,H  12)           82.3972         0.162696   
     41. A(N   6,F   9,O   7)           25.7962         0.120482   
     42. A(C   0,F   9,O   7)           86.0471         0.203997 C 
     43. A(C   0,F   9,N   6)           60.2509         0.179684 C 
     44. A(H  11,H  10,C  13)          123.1088         0.089224 C 
     45. A(H  10,H  11,H  12)          119.7063         0.095112   
     46. A(N   6,H  12,O   8)           30.3275         0.103999   
     47. A(N   6,H  12,H  11)          126.7169         0.097913   
     48. A(O   8,H  12,H  11)          157.0445         0.099419   
     49. A(H  14,C  13,H  15)          108.9702         0.289570   
     50. A(H  14,C  13,H  16)          108.9405         0.289548   
     51. A(H  15,C  13,H  16)          108.9919         0.289725   
     52. A(H  10,C  13,H  14)           97.1457         0.090289 C 
     53. A(H  10,C  13,H  15)           86.4995         0.090290 C 
     54. A(H  10,C  13,H  16)          142.3510         0.090290 C 
     55. A(H  14,C  13,S  17)          109.9869         0.339352 C 
     56. A(H  15,C  13,S  17)          109.9946         0.339573 C 
     57. A(H  16,C  13,S  17)          109.9294         0.339545 C 
     58. A(H  10,C  13,S  17)           33.4782         0.090610   
     59. D(C   2,N   1,C   0,C   5)     -0.1041         0.028432   
     60. D(C   2,N   1,C   0,F   9)    179.9112         0.028432 C 
     61. D(C   3,C   2,N   1,C   0)      0.1066         0.025783   
     62. D(C   4,C   3,C   2,N   1)     -0.0956         0.020965   
     63. D(C   5,C   4,C   3,C   2)      0.0854         0.021202   
     64. D(C   4,C   5,C   0,N   1)      0.0896         0.022761   
     65. D(O   7,C   5,C   0,N   1)    179.9933         0.022761 C 
     66. D(O   7,C   5,C   4,C   3)   -179.9036         0.021656 C 
     67. D(C   0,C   5,C   4,C   3)     -0.0818         0.021656   
     68. D(C   4,C   5,C   0,F   9)   -179.9260         0.022761 C 
     69. D(O   7,C   5,C   0,F   9)     -0.0223         0.022761 C 
     70. D(F   9,O   7,C   5,C   0)      0.0117         0.001517 C 
     71. D(N   6,O   7,C   5,C   0)   -179.9521         0.001517 C 
     72. D(N   6,O   7,C   5,C   4)     -0.1099         0.001517 C 
     73. D(F   9,O   7,C   5,C   4)    179.8539         0.001517 C 
     74. D(F   9,O   7,N   6,O   8)    179.9932         0.079747   
     75. D(F   9,O   7,N   6,H  12)      0.1568         0.079747   
     76. D(C   5,O   7,N   6,O   8)   -179.9761         0.079747 C 
     77. D(C   5,O   7,N   6,H  12)      0.1876         0.079747 C 
     78. D(C   5,O   7,N   6,F   9)      0.0308         0.079747 C 
     79. D(H  12,O   8,N   6,O   7)   -179.9821         0.025649   
     80. D(C   0,F   9,O   7,C   5)     -0.0123         0.001503 C 
     81. D(N   6,F   9,C   0,C   5)      0.0236         0.032536 C 
     82. D(O   7,F   9,C   0,N   1)   -179.9952         0.032536 C 
     83. D(O   7,F   9,C   0,C   5)      0.0202         0.032536 C 
     84. D(O   7,F   9,N   6,H  12)   -179.9832         0.001500   
     85. D(C   0,F   9,N   6,O   7)   -179.9922         0.001500 C 
     86. D(C   0,F   9,N   6,H  12)      0.0246         0.001500 C 
     87. D(N   6,F   9,O   7,C   5)     -0.0190         0.001503 C 
     88. D(N   6,F   9,C   0,N   1)   -179.9918         0.032536 C 
     89. D(C   0,F   9,O   7,N   6)      0.0068         0.001503 C 
     90. D(O   7,F   9,O   8,H  12)   -179.9897         0.001500   
     91. D(C   0,F   9,O   8,H  12)      0.0232         0.001500 C 
     92. D(H  12,H  11,H  10,C  13)     96.3469         0.001501 C 
     93. D(O   8,H  12,N   6,O   7)    179.8441         0.001501   
     94. D(O   8,H  12,N   6,F   9)    179.9943         0.001501   
     95. D(H  11,H  12,N   6,O   7)     -0.1748         0.001501   
     96. D(H  11,H  12,N   6,O   8)    179.9811         0.001501   
     97. D(H  11,H  12,N   6,F   9)     -0.0245         0.001501   
     98. D(H  11,H  12,O   8,N   6)     -0.0388         0.001502   
     99. D(N   6,H  12,H  11,H  10)      0.0466         0.001502   
    100. D(O   8,H  12,H  11,H  10)      0.0710         0.001502   
    101. D(H  14,C  13,H  10,H  11)    145.8025         0.001500 C 
    102. D(H  15,C  13,H  10,H  11)     37.1054         0.001500 C 
    103. D(H  16,C  13,H  10,H  11)    -79.9264         0.001500 C 
    104. D(S  17,C  13,H  10,H  11)    -98.4170         0.001500   
    -----------------------------------------------------------------

Number of atoms                         .... 18
Number of degrees of freedom            .... 104

         *************************************************************
         *                GEOMETRY OPTIMIZATION CYCLE   1            *
         *************************************************************
---------------------------------
CARTESIAN COORDINATES (ANGSTROEM)
---------------------------------
  C      0.000000    0.000000    1.820000
  N      1.178000   -0.196000    2.473000
  C      1.255000   -0.207000    3.829000
  C      0.105000   -0.016000    4.595000
  C     -1.116000    0.187000    3.955000
  C     -1.192000    0.198000    2.551000
  N     -2.456000    0.409000    1.893000
  O     -2.541000    0.423000    0.648000
  O     -3.602000    0.600000    2.632000
  F      0.000000    0.000000    0.470000
  H      2.209000   -0.366000    4.313000
  H      0.163000   -0.026000    5.676000
  H     -2.005000    0.335000    4.557000
  C      6.773000    4.921000    2.720000
  H      7.688000    4.321000    2.738000
  H      6.578000    5.302000    3.726000
  H      6.916000    5.766000    2.041000
  S      5.386000    3.913000    2.163000

----------------------------
CARTESIAN COORDINATES (A.U.)
----------------------------
  NO LB      ZA    FRAG     MASS         X           Y           Z
   0 C     6.0000    1    12.011    0.000000    0.000000    3.439302
   1 N     7.0000    1    14.007    2.226097   -0.370386    4.673293
   2 C     6.0000    1    12.011    2.371606   -0.391173    7.235761
   3 C     6.0000    1    12.011    0.198421   -0.030236    8.683292
   4 C     6.0000    1    12.011   -2.108934    0.353379    7.473867
   5 C     6.0000    1    12.011   -2.252554    0.374166    4.820691
   6 N     7.0000    2    14.007   -4.641167    0.772898    3.577252
   7 O     8.0000    2    15.999   -4.801794    0.799354    1.224543
   8 O     8.0000    2    15.999   -6.806794    1.133836    4.973759
   9 F     9.0000    2    18.998    0.000000    0.000000    0.888171
  10 H     1.0000    2     1.008    4.174405   -0.691640    8.150389
  11 H     1.0000    2     1.008    0.308025   -0.049133   10.726086
  12 H     1.0000    2     1.008   -3.788901    0.633058    8.611482
  13 C     6.0000    3    12.011   12.799115    9.299342    5.140055
  14 H     1.0000    3     1.008   14.528215    8.165507    5.174070
  15 H     1.0000    3     1.008   12.430619   10.019328    7.041120
  16 H     1.0000    3     1.008   13.069346   10.896161    3.856931
  17 S    16.0000    4    32.060   10.178065    7.394498    4.087478

----------------------------------------------
CARTESIAN COORDINATES OF FRAGMENTS (ANGSTROEM)
----------------------------------------------

 FRAGMENT 1 
  C     0.000000    0.000000    1.820000
  N     1.178000   -0.196000    2.473000
  C     1.255000   -0.207000    3.829000
  C     0.105000   -0.016000    4.595000
  C    -1.116000    0.187000    3.955000
  C    -1.192000    0.198000    2.551000

 FRAGMENT 2 
  N    -2.456000    0.409000    1.893000
  O    -2.541000    0.423000    0.648000
  O    -3.602000    0.600000    2.632000
  F     0.000000    0.000000    0.470000
  H     2.209000   -0.366000    4.313000
  H     0.163000   -0.026000    5.676000
  H    -2.005000    0.335000    4.557000

 FRAGMENT 3 
  C     6.773000    4.921000    2.720000
  H     7.688000    4.321000    2.738000
  H     6.578000    5.302000    3.726000
  H     6.916000    5.766000    2.041000

 FRAGMENT 4 
  S     5.386000    3.913000    2.163000

--------------------------------
INTERNAL COORDINATES (ANGSTROEM)
--------------------------------
 C      0   0   0     0.000000000000     0.00000000     0.00000000
 N      1   0   0     1.361069065110     0.00000000     0.00000000
 C      2   1   0     1.358228993948   121.95243626     0.00000000
 C      3   2   1     1.394896770374   120.02620694     0.10655554
 C      4   3   2     1.393431017309   119.34983770   359.90435571
 C      5   4   3     1.406098502951   120.47178172     0.08537773
 N      6   5   4     1.440548853736   120.30882193   180.03842131
 O      7   6   5     1.247976762604   121.13704526   179.93147861
 O      7   6   5     1.376923382037   120.36156660   359.90709941
 F      1   2   3     1.350000000000   118.67037638   179.91115691
 H      3   2   1     1.081504969938   119.86701156   179.98746005
 H      4   3   2     1.082601034546   120.19197482   179.89186186
 H      5   4   3     1.083803026384   118.91636700   180.02085854
 C     11   3   2     7.163805832098   110.73001973    63.00572201
 H     14  11   3     1.094325819854    97.14572125   212.63425868
 H     14  11   3     1.093262091175    86.49953177   103.93715960
 H     14  11   3     1.093396085598   142.35095164   346.90539239
 S     14  11   3     1.802798380297    33.47818661   328.41478950

---------------------------
INTERNAL COORDINATES (A.U.)
---------------------------
 C      0   0   0     0.000000000000     0.00000000     0.00000000
 N      1   0   0     2.572047782411     0.00000000     0.00000000
 C      2   1   0     2.566680825712   121.95243626     0.00000000
 C      3   2   1     2.635972881098   120.02620694     0.10655554
 C      4   3   2     2.633203009226   119.34983770   359.90435571
 C      5   4   3     2.657141087893   120.47178172     0.08537773
 N      6   5   4     2.722242816095   120.30882193   180.03842131
 O      7   6   5     2.358334302820   121.13704526   179.93147861
 O      7   6   5     2.602008099442   120.36156660   359.90709941
 F      1   2   3     2.551130280794   118.67037638   179.91115691
 H      3   2   1     2.043748205657   119.86701156   179.98746005
 H      4   3   2     2.045819467592   120.19197482   179.89186186
 H      5   4   3     2.048090902982   118.91636700   180.02085854
 C     11   3   2    13.537631099253   110.73001973    63.00572201
 H     14  11   3     2.067976100804    97.14572125   212.63425868
 H     14  11   3     2.065965944919    86.49953177   103.93715960
 H     14  11   3     2.066219157681   142.35095164   346.90539239
 S     14  11   3     3.406795213437    33.47818661   328.41478950

---------------------
BASIS SET INFORMATION
---------------------
There are 6 groups of distinct atoms

 Group   1 Type C   : 12s6p1d contracted to 5s4p1d pattern {63111/3111/1}
 Group   2 Type N   : 12s6p1d contracted to 5s4p1d pattern {63111/3111/1}
 Group   3 Type O   : 12s6p1d contracted to 5s4p1d pattern {63111/3111/1}
 Group   4 Type F   : 12s6p1d contracted to 5s4p1d pattern {63111/3111/1}
 Group   5 Type H   : 6s1p contracted to 4s1p pattern {3111/1}
 Group   6 Type S   : 14s10p1d contracted to 7s6p1d pattern {6311111/421111/1}

Atom   0C    basis set group =>   1
Atom   1N    basis set group =>   2
Atom   2C    basis set group =>   1
Atom   3C    basis set group =>   1
Atom   4C    basis set group =>   1
Atom   5C    basis set group =>   1
Atom   6N    basis set group =>   2
Atom   7O    basis set group =>   3
Atom   8O    basis set group =>   3
Atom   9F    basis set group =>   4
Atom  10H    basis set group =>   5
Atom  11H    basis set group =>   5
Atom  12H    basis set group =>   5
Atom  13C    basis set group =>   1
Atom  14H    basis set group =>   5
Atom  15H    basis set group =>   5
Atom  16H    basis set group =>   5
Atom  17S    basis set group =>   6
---------------------------------
AUXILIARY/J BASIS SET INFORMATION
---------------------------------
There are 6 groups of distinct atoms

 Group   1 Type C   : 12s5p4d2f1g contracted to 6s4p3d1f1g pattern {711111/2111/211/2/1}
 Group   2 Type N   : 12s5p4d2f1g contracted to 6s4p3d1f1g pattern {711111/2111/211/2/1}
 Group   3 Type O   : 12s5p4d2f1g contracted to 6s4p3d1f1g pattern {711111/2111/211/2/1}
 Group   4 Type F   : 12s5p4d2f1g contracted to 6s4p3d1f1g pattern {711111/2111/211/2/1}
 Group   5 Type H   : 5s2p1d contracted to 3s1p1d pattern {311/2/1}
 Group   6 Type S   : 14s5p5d2f1g contracted to 8s4p3d1f1g pattern {71111111/2111/311/2/1}

Atom   0C    basis set group =>   1
Atom   1N    basis set group =>   2
Atom   2C    basis set group =>   1
Atom   3C    basis set group =>   1
Atom   4C    basis set group =>   1
Atom   5C    basis set group =>   1
Atom   6N    basis set group =>   2
Atom   7O    basis set group =>   3
Atom   8O    basis set group =>   3
Atom   9F    basis set group =>   4
Atom  10H    basis set group =>   5
Atom  11H    basis set group =>   5
Atom  12H    basis set group =>   5
Atom  13C    basis set group =>   1
Atom  14H    basis set group =>   5
Atom  15H    basis set group =>   5
Atom  16H    basis set group =>   5
Atom  17S    basis set group =>   6


           ************************************************************
           *        Program running with 24 parallel MPI-processes    *
           *              working on a common directory               *
           ************************************************************
------------------------------------------------------------------------------
                           ORCA GTO INTEGRAL CALCULATION
                           -- RI-GTO INTEGRALS CHOSEN --
------------------------------------------------------------------------------
------------------------------------------------------------------------------
                   ___                                                        
                  /   \      - P O W E R E D   B Y -                         
                 /     \                                                     
                 |  |  |   _    _      __       _____    __    __             
                 |  |  |  | |  | |    /  \     |  _  \  |  |  /  |          
                  \  \/   | |  | |   /    \    | | | |  |  | /  /          
                 / \  \   | |__| |  /  /\  \   | |_| |  |  |/  /          
                |  |  |   |  __  | /  /__\  \  |    /   |      \           
                |  |  |   | |  | | |   __   |  |    \   |  |\   \          
                \     /   | |  | | |  |  |  |  | |\  \  |  | \   \       
                 \___/    |_|  |_| |__|  |__|  |_| \__\ |__|  \__/        
                                                                              
                      - O R C A' S   B I G   F R I E N D -                    
                                      &                                       
                       - I N T E G R A L  F E E D E R -                       
                                                                              
 v1 FN, 2020, v2 2021                                                         
------------------------------------------------------------------------------


Reading SHARK input file structure_opt.SHARKINP.tmp ... ok
----------------------
SHARK INTEGRAL PACKAGE
----------------------

Number of atoms                             ...     18
Number of basis functions                   ...    314
Number of shells                            ...    154
Maximum angular momentum                    ...      2
Integral batch strategy                     ... SHARK/LIBINT Hybrid
RI-J (if used) integral strategy            ... SPLIT-RIJ (Revised 2003 algorithm where possible)
Printlevel                                  ...      1
Contraction scheme used                     ... SEGMENTED contraction
Coulomb Range Separation                    ... NOT USED
Exchange Range Separation                   ... Long Range
   Mu parameter                             ...  0.300000
   Scaling (regular/separated)              ...  0.157706  0.842294
Finite Nucleus Model                        ... NOT USED
Auxiliary Coulomb fitting basis             ... AVAILABLE
   # of basis functions in Aux-J            ...    656
   # of shells in Aux-J                     ...    212
   Maximum angular momentum in Aux-J        ...      4
Auxiliary J/K fitting basis                 ... NOT available
Auxiliary Correlation fitting basis         ... NOT available
Auxiliary 'external' fitting basis          ... NOT available
Integral threshold                          ...     2.500000e-11
Primitive cut-off                           ...     2.500000e-12
Primitive pair pre-selection threshold      ...     2.500000e-12

Calculating pre-screening integrals         ... done (  0.0 sec) Dimension = 154
Organizing shell pair data                  ... done (  0.1 sec)
Shell pair information
Total number of shell pairs                 ...     11935
Shell pairs after pre-screening             ...      8805
Total number of primitive shell pairs       ...     38500
Primitive shell pairs kept                  ...     20171
          la=0 lb=0:   2699 shell pairs
          la=1 lb=0:   3613 shell pairs
          la=1 lb=1:   1251 shell pairs
          la=2 lb=0:    704 shell pairs
          la=2 lb=1:    486 shell pairs
          la=2 lb=2:     52 shell pairs

Calculating one electron integrals          ... done (  0.0 sec)
Calculating RI/J V-Matrix + Cholesky decomp.... done (  0.0 sec)
Calculating Nuclear repulsion               ... done (  0.0 sec) ENN=    670.918774030854 Eh

SHARK setup successfully completed in   0.4 seconds

Maximum memory used throughout the entire GTOINT-calculation: 17.5 MB


           ************************************************************
           *        Program running with 24 parallel MPI-processes    *
           *              working on a common directory               *
           ************************************************************
-------------------------------------------------------------------------------
                                 ORCA SCF
-------------------------------------------------------------------------------

------------
SCF SETTINGS
------------
Hamiltonian:
 Density Functional     Method          .... DFT(GTOs)
 Exchange Functional    Exchange        .... WB97X
 Correlation Functional Correlation     .... WB97X
 Gradients option       PostSCFGGA      .... off
 Hybrid DFT is turned on
   Fraction HF Exchange ScalHFX         ....  0.157706
   Scaling of DF-GGA-X  ScalDFX         ....  0.000000
   Scaling of DF-GGA-C  ScalDFC         ....  1.000000
   Scaling of DF-LDA-C  ScalLDAC        ....  1.000000
   Perturbative correction              ....  0.000000
   Density functional embedding theory  .... OFF
 Long-range corrected/Screened/Range-Separated Hybrid DFT is turned on
   Amount of maximum screened exact exchange              ....  0.842294
   Range separation parameter mu (erf(mu*r12)/r12)        ....  0.300000
 RI-approximation to the Coulomb term is turned on
   Number of AuxJ basis functions       .... 656
   RIJ-COSX (HFX calculated with COS-X)).... on


General Settings:
 Integral files         IntName         .... structure_opt
 Hartree-Fock type      HFTyp           .... RHF
 Total Charge           Charge          ....   -1
 Multiplicity           Mult            ....    1
 Number of Electrons    NEL             ....   98
 Basis Dimension        Dim             ....  314
 Nuclear Repulsion      ENuc            ....    670.9187740309 Eh

Convergence Acceleration:
 DIIS                   CNVDIIS         .... on
   Start iteration      DIISMaxIt       ....    12
   Startup error        DIISStart       ....  0.200000
   # of expansion vecs  DIISMaxEq       ....     5
   Bias factor          DIISBfac        ....   1.050
   Max. coefficient     DIISMaxC        ....  10.000
 Trust-Rad. Augm. Hess. CNVTRAH         .... auto
   Auto Start mean grad. ratio tolernc. ....  1.125000
   Auto Start start iteration           ....    20
   Auto Start num. interpolation iter.  ....    10
   Max. Number of Micro iterations      ....    16
   Max. Number of Macro iterations      .... Maxiter - #DIIS iter
   Number of Davidson start vectors     ....     2
   Converg. threshold I  (grad. norm)   ....   1.000e-05
   Converg. threshold II (energy diff.) ....   1.000e-08
   Grad. Scal. Fac. for Micro threshold ....   0.100
   Minimum threshold for Micro iter.    ....   0.010
   NR start threshold (gradient norm)   ....   0.001
   Initial trust radius                 ....   0.400
   Minimum AH scaling param. (alpha)    ....   1.000
   Maximum AH scaling param. (alpha)    .... 1000.000
   Orbital update algorithm             .... Taylor
   White noise on init. David. guess    .... on
   Maximum white noise                  ....   0.010
   Quad. conv. algorithm                .... NR
 SOSCF                  CNVSOSCF        .... on
   Start iteration      SOSCFMaxIt      ....   150
   Startup grad/error   SOSCFStart      ....  0.003300
 Level Shifting         CNVShift        .... on
   Level shift para.    LevelShift      ....    0.2500
   Turn off err/grad.   ShiftErr        ....    0.0010
 Zerner damping         CNVZerner       .... off
 Static damping         CNVDamp         .... on
   Fraction old density DampFac         ....    0.7000
   Max. Damping (<1)    DampMax         ....    0.9800
   Min. Damping (>=0)   DampMin         ....    0.0000
   Turn off err/grad.   DampErr         ....    0.1000
 Fernandez-Rico         CNVRico         .... off

SCF Procedure:
 Maximum # iterations   MaxIter         ....   125
 SCF integral mode      SCFMode         .... Direct
   Integral package                     .... SHARK and LIBINT hybrid scheme
 Reset frequency        DirectResetFreq ....    20
 Integral Threshold     Thresh          ....  2.500e-11 Eh
 Primitive CutOff       TCut            ....  2.500e-12 Eh

Convergence Tolerance:
 Convergence Check Mode ConvCheckMode   .... Total+1el-Energy
 Convergence forced     ConvForced      .... 0
 Energy Change          TolE            ....  1.000e-08 Eh
 1-El. energy change                    ....  1.000e-05 Eh
 Orbital Gradient       TolG            ....  1.000e-05
 Orbital Rotation angle TolX            ....  1.000e-05
 DIIS Error             TolErr          ....  5.000e-07


Diagonalization of the overlap matrix:
Smallest eigenvalue                        ... 4.382e-06
Time for diagonalization                   ...    0.015 sec
Threshold for overlap eigenvalues          ... 1.000e-08
Number of eigenvalues below threshold      ... 0
Time for construction of square roots      ...    0.018 sec
Total time needed                          ...    0.035 sec

Time for model grid setup =    0.244 sec

------------------------------
INITIAL GUESS: MODEL POTENTIAL
------------------------------
Loading Hartree-Fock densities                     ... done
Calculating cut-offs                               ... done
Initializing the effective Hamiltonian             ... done
Setting up the integral package (SHARK)            ... done
Starting the Coulomb interaction                   ... done (   0.2 sec)
Reading the grid                                   ... done
Mapping shells                                     ... done
Starting the XC term evaluation                    ... done (   0.0 sec)
  promolecular density results
     # of electrons  =     96.995024167
     EX              =    -96.552273808
     EC              =     -3.327208337
     EX+EC           =    -99.879482145
Transforming the Hamiltonian                       ... done (   0.0 sec)
Diagonalizing the Hamiltonian                      ... done (   0.0 sec)
Back transforming the eigenvectors                 ... done (   0.0 sec)
Now organizing SCF variables                       ... done
                      ------------------
                      INITIAL GUESS DONE (   0.6 sec)
                      ------------------
-------------------
DFT GRID GENERATION
-------------------

General Integration Accuracy     IntAcc      ... 4.388
Radial Grid Type                 RadialGrid  ... OptM3 with GC (2021)
Angular Grid (max. ang.)         AngularGrid ... 4 (Lebedev-302)
Angular grid pruning method      GridPruning ... 4 (adaptive)
Weight generation scheme         WeightScheme... Becke
Basis function cutoff            BFCut       ... 1.0000e-11
Integration weight cutoff        WCut        ... 1.0000e-14
Angular grids for H and He will be reduced by one unit
Partially contracted basis set               ... off
Rotationally invariant grid construction     ... off

Total number of grid points                  ...    98161
Total number of batches                      ...     1542
Average number of points per batch           ...       63
Average number of grid points per atom       ...     5453
Time for grid setup =    0.806 sec

--------------------
COSX GRID GENERATION
--------------------

GRIDX 1
-------
General Integration Accuracy     IntAcc      ... 3.816
Radial Grid Type                 RadialGrid  ... OptM3 with GC (2021)
Angular Grid (max. ang.)         AngularGrid ... 1 (Lebedev-50)
Angular grid pruning method      GridPruning ... 4 (adaptive)
Weight generation scheme         WeightScheme... Becke
Basis function cutoff            BFCut       ... 1.0000e-11
Integration weight cutoff        WCut        ... 1.0000e-14
Angular grids for H and He will be reduced by one unit
Partially contracted basis set               ... on
Rotationally invariant grid construction     ... off

Total number of grid points                  ...    12262
Total number of batches                      ...      202
Average number of points per batch           ...       60
Average number of grid points per atom       ...      681
UseSFitting                                  ... on

GRIDX 2
-------
General Integration Accuracy     IntAcc      ... 4.020
Radial Grid Type                 RadialGrid  ... OptM3 with GC (2021)
Angular Grid (max. ang.)         AngularGrid ... 2 (Lebedev-110)
Angular grid pruning method      GridPruning ... 4 (adaptive)
Weight generation scheme         WeightScheme... Becke
Basis function cutoff            BFCut       ... 1.0000e-11
Integration weight cutoff        WCut        ... 1.0000e-14
Angular grids for H and He will be reduced by one unit
Partially contracted basis set               ... on
Rotationally invariant grid construction     ... off

Total number of grid points                  ...    31127
Total number of batches                      ...      495
Average number of points per batch           ...       62
Average number of grid points per atom       ...     1729
UseSFitting                                  ... on

GRIDX 3
-------
General Integration Accuracy     IntAcc      ... 4.338
Radial Grid Type                 RadialGrid  ... OptM3 with GC (2021)
Angular Grid (max. ang.)         AngularGrid ... 3 (Lebedev-194)
Angular grid pruning method      GridPruning ... 4 (adaptive)
Weight generation scheme         WeightScheme... Becke
Basis function cutoff            BFCut       ... 1.0000e-11
Integration weight cutoff        WCut        ... 1.0000e-14
Angular grids for H and He will be reduced by one unit
Partially contracted basis set               ... on
Rotationally invariant grid construction     ... off

Total number of grid points                  ...    69219
Total number of batches                      ...     1092
Average number of points per batch           ...       63
Average number of grid points per atom       ...     3846
UseSFitting                                  ... on

Time for X-Grid setup             =    1.134 sec


--------------------
CPCM SOLVATION MODEL
--------------------
CPCM parameters:
  Epsilon                                         ...      78.3550
  Refrac                                          ...       1.3328
  Rsolv                                           ...       1.3000
  Surface type                                    ... GAUSSIAN VDW
  Epsilon function type                           ...         CPCM
Solvent:                                     ... WATER
SMD-CDS solvent descriptors:
  Soln                                       ...    1.3328
  Soln25                                     ...    1.3323
  Sola                                       ...    0.0000
  Solb                                       ...    0.0000
  Solg                                       ...    0.0000
  Solc                                       ...    0.0000
  Solh                                       ...    0.0000
Radii:
 Radius for C  used is    3.4960 Bohr (=   1.8500 Ang.)
 Radius for N  used is    3.5716 Bohr (=   1.8900 Ang.)
 Radius for O  used is    2.8724 Bohr (=   1.5200 Ang.)
 Radius for F  used is    3.2692 Bohr (=   1.7300 Ang.)
 Radius for H  used is    2.2677 Bohr (=   1.2000 Ang.)
 Radius for S  used is    4.7054 Bohr (=   2.4900 Ang.)
Calculating surface                               ...        done! (  0.0s)
GEPOL surface points                              ...         1153
GEPOL Volume                                      ...    1381.5253
GEPOL Surface-area                                ...     851.8177
Calculating surface distance matrix               ...        done! (  0.0s)
Performing Cholesky decomposition & store         ...        done! (  0.1s)
Overall time for CPCM initialization              ...                 0.1s
--------------
SCF ITERATIONS
--------------
ITER       Energy         Delta-E        Max-DP      RMS-DP      [F,P]     Damp
               ***  Starting incremental Fock matrix formation  ***
  0   -989.8660882703   0.000000000000 0.32829607  0.00314619  0.2373453 0.7000
  1   -990.0283104952  -0.162222224917 0.26746322  0.00249416  0.1152062 0.7000
                               ***Turning on DIIS***
  2   -990.1007560014  -0.072445506248 1.55766282  0.00899074  0.0594970 0.0000
  3   -990.2248251220  -0.124069120607 0.72422311  0.00383869  0.0550113 0.0000
  4   -990.2439709232  -0.019145801191 0.28163168  0.00148635  0.0124392 0.0000
  5   -990.2451464673  -0.001175544047 0.13641590  0.00074503  0.0061367 0.0000
                      *** Initiating the SOSCF procedure ***
                           *** Shutting down DIIS ***
                      *** Re-Reading the Fockian *** 
                      *** Removing any level shift *** 
ITER      Energy       Delta-E        Grad      Rot      Max-DP    RMS-DP
  6   -990.24537775  -0.0002312804  0.001503  0.001503  0.038135  0.000240
               *** Restarting incremental Fock matrix formation ***
  7   -990.24546075  -0.0000830044  0.000983  0.002414  0.013022  0.000172
  8   -990.24550017  -0.0000394170  0.000344  0.002529  0.008428  0.000161
  9   -990.24550607  -0.0000059050  0.000687  0.000723  0.006238  0.000084
 10   -990.24551301  -0.0000069390  0.000114  0.000189  0.003868  0.000030
 11   -990.24551310  -0.0000000840  0.000093  0.000127  0.004233  0.000022
 12   -990.24551345  -0.0000003570  0.000015  0.000040  0.005868  0.000031
 13   -990.24551345   0.0000000012  0.000007  0.000031  0.003623  0.000031
 14   -990.24551346  -0.0000000030  0.000005  0.000013  0.003443  0.000025
                  ***Gradient check signals convergence***
              ***Rediagonalizing the Fockian in SOSCF/NRSCF***

               *****************************************************
               *                     SUCCESS                       *
               *           SCF CONVERGED AFTER  15 CYCLES          *
               *****************************************************

Old exchange energy                            =    -28.432678834 Eh
New exchange energy                            =    -28.432667550 Eh
Exchange energy change after final integration =      0.000011285 Eh
Total energy after final integration           =   -990.245502177 Eh
Final COS-X integration done in                =     3.424 sec

SMD CDS free energy correction energy :                 5.87240     Kcal/mol
Total Energy after SMD CDS correction =              -990.236143906 Eh

----------------
TOTAL SCF ENERGY
----------------

Total Energy       :         -990.23614391 Eh          -26945.69537 eV

Components:
Nuclear Repulsion  :          670.91877403 Eh           18256.62799 eV
Electronic Energy  :        -1661.15491794 Eh          -45202.32336 eV
One Electron Energy:        -2700.85793220 Eh          -73494.08070 eV
Two Electron Energy:         1039.70301427 Eh           28291.75734 eV
Max COSX asymmetry :            0.00000209 Eh               0.00006 eV
CPCM Dielectric    :           -0.12705332 Eh              -3.45730 eV
SMD CDS (Gcds)     :            0.00935827 Eh               0.25465 eV

Virial components:
Potential Energy   :        -1977.46854246 Eh          -53809.65467 eV
Kinetic Energy     :          987.23239855 Eh           26863.95930 eV
Virial Ratio       :            2.00304259


DFT components:
N(Alpha)           :       48.999979911428 electrons
N(Beta)            :       48.999979911428 electrons
N(Total)           :       97.999959822856 electrons
E(XC)              :      -73.338117740490 Eh       
DFET-embed. en.    :        0.000000000000 Eh       
CPCM Solvation Model Properties:
Surface-charge          :            0.94472569
Charge-correction       :           -0.00555583 Eh              -0.15118 eV
Free-energy (cav+disp)  :            0.00935827 Eh               0.25465 eV

---------------
SCF CONVERGENCE
---------------

  Last Energy change         ...   -5.7685e-09  Tolerance :   1.0000e-08
  Last MAX-Density change    ...    2.5535e-15  Tolerance :   1.0000e-07
  Last RMS-Density change    ...    3.9416e-17  Tolerance :   5.0000e-09
  Last Orbital Gradient      ...    1.9852e-06  Tolerance :   1.0000e-05
  Last Orbital Rotation      ...    1.7343e-06  Tolerance :   1.0000e-05

             **** THE GBW FILE WAS UPDATED (structure_opt.gbw) ****
             **** DENSITY structure_opt.scfp WAS UPDATED ****
             **** ENERGY FILE WAS UPDATED (structure_opt.en.tmp) ****
             **** THE GBW FILE WAS UPDATED (structure_opt.gbw) ****
             **** DENSITY structure_opt.scfp WAS UPDATED ****
----------------
ORBITAL ENERGIES
----------------

  NO   OCC          E(Eh)            E(eV) 
   0   2.0000     -88.720304     -2414.2022 
   1   2.0000     -24.793334      -674.6609 
   2   2.0000     -19.275773      -524.5204 
   3   2.0000     -19.244090      -523.6583 
   4   2.0000     -14.669998      -399.1909 
   5   2.0000     -14.435530      -392.8108 
   6   2.0000     -10.437715      -284.0247 
   7   2.0000     -10.364194      -282.0241 
   8   2.0000     -10.338155      -281.3155 
   9   2.0000     -10.321210      -280.8544 
  10   2.0000     -10.290474      -280.0180 
  11   2.0000     -10.236145      -278.5397 
  12   2.0000      -7.916187      -215.4104 
  13   2.0000      -5.879336      -159.9849 
  14   2.0000      -5.871947      -159.7838 
  15   2.0000      -5.871927      -159.7833 
  16   2.0000      -1.396374       -37.9973 
  17   2.0000      -1.348402       -36.6919 
  18   2.0000      -1.151666       -31.3384 
  19   2.0000      -1.109249       -30.1842 
  20   2.0000      -1.008482       -27.4422 
  21   2.0000      -0.943406       -25.6714 
  22   2.0000      -0.874038       -23.7838 
  23   2.0000      -0.836385       -22.7592 
  24   2.0000      -0.796676       -21.6786 
  25   2.0000      -0.769224       -20.9317 
  26   2.0000      -0.706056       -19.2128 
  27   2.0000      -0.686639       -18.6844 
  28   2.0000      -0.669440       -18.2164 
  29   2.0000      -0.665311       -18.1040 
  30   2.0000      -0.661878       -18.0106 
  31   2.0000      -0.633366       -17.2348 
  32   2.0000      -0.620399       -16.8819 
  33   2.0000      -0.615232       -16.7413 
  34   2.0000      -0.563823       -15.3424 
  35   2.0000      -0.537116       -14.6157 
  36   2.0000      -0.527919       -14.3654 
  37   2.0000      -0.527897       -14.3648 
  38   2.0000      -0.494536       -13.4570 
  39   2.0000      -0.494335       -13.4515 
  40   2.0000      -0.456261       -12.4155 
  41   2.0000      -0.432660       -11.7733 
  42   2.0000      -0.421827       -11.4785 
  43   2.0000      -0.416486       -11.3332 
  44   2.0000      -0.407978       -11.1016 
  45   2.0000      -0.390974       -10.6389 
  46   2.0000      -0.384921       -10.4742 
  47   2.0000      -0.259093        -7.0503 
  48   2.0000      -0.259055        -7.0493 
  49   0.0000      -0.064910        -1.7663 
  50   0.0000       0.022658         0.6166 
  51   0.0000       0.051032         1.3886 
  52   0.0000       0.055510         1.5105 
  53   0.0000       0.059903         1.6301 
  54   0.0000       0.069750         1.8980 
  55   0.0000       0.075367         2.0509 
  56   0.0000       0.086531         2.3546 
  57   0.0000       0.090731         2.4689 
  58   0.0000       0.095377         2.5953 
  59   0.0000       0.098894         2.6911 
  60   0.0000       0.111696         3.0394 
  61   0.0000       0.125133         3.4050 
  62   0.0000       0.126527         3.4430 
  63   0.0000       0.133306         3.6274 
  64   0.0000       0.135588         3.6895 
  65   0.0000       0.143570         3.9067 
  66   0.0000       0.148426         4.0389 
  67   0.0000       0.160469         4.3666 
  68   0.0000       0.162578         4.4240 
  69   0.0000       0.167148         4.5483 
  70   0.0000       0.170829         4.6485 
  71   0.0000       0.173039         4.7086 
  72   0.0000       0.178541         4.8584 
  73   0.0000       0.179993         4.8979 
  74   0.0000       0.182604         4.9689 
  75   0.0000       0.190369         5.1802 
  76   0.0000       0.193824         5.2742 
  77   0.0000       0.195670         5.3245 
  78   0.0000       0.198992         5.4148 
  79   0.0000       0.204929         5.5764 
  80   0.0000       0.213178         5.8009 
  81   0.0000       0.219625         5.9763 
  82   0.0000       0.222309         6.0493 
  83   0.0000       0.224909         6.1201 
  84   0.0000       0.237891         6.4734 
  85   0.0000       0.243761         6.6331 
  86   0.0000       0.248767         6.7693 
  87   0.0000       0.258625         7.0375 
  88   0.0000       0.266515         7.2522 
  89   0.0000       0.267679         7.2839 
  90   0.0000       0.272138         7.4053 
  91   0.0000       0.277223         7.5436 
  92   0.0000       0.278425         7.5763 
  93   0.0000       0.278668         7.5829 
  94   0.0000       0.284246         7.7347 
  95   0.0000       0.297534         8.0963 
  96   0.0000       0.308088         8.3835 
  97   0.0000       0.313632         8.5343 
  98   0.0000       0.319453         8.6928 
  99   0.0000       0.322533         8.7766 
 100   0.0000       0.327992         8.9251 
 101   0.0000       0.339224         9.2308 
 102   0.0000       0.350076         9.5261 
 103   0.0000       0.356200         9.6927 
 104   0.0000       0.362213         9.8563 
 105   0.0000       0.364126         9.9084 
 106   0.0000       0.374844        10.2000 
 107   0.0000       0.377457        10.2711 
 108   0.0000       0.395817        10.7707 
 109   0.0000       0.404678        11.0118 
 110   0.0000       0.408476        11.1152 
 111   0.0000       0.419889        11.4258 
 112   0.0000       0.427792        11.6408 
 113   0.0000       0.433366        11.7925 
 114   0.0000       0.437899        11.9158 
 115   0.0000       0.452889        12.3237 
 116   0.0000       0.457068        12.4375 
 117   0.0000       0.464282        12.6337 
 118   0.0000       0.477617        12.9966 
 119   0.0000       0.481313        13.0972 
 120   0.0000       0.494529        13.4568 
 121   0.0000       0.502260        13.6672 
 122   0.0000       0.519722        14.1424 
 123   0.0000       0.528664        14.3857 
 124   0.0000       0.529524        14.4091 
 125   0.0000       0.549060        14.9407 
 126   0.0000       0.581447        15.8220 
 127   0.0000       0.612467        16.6661 
 128   0.0000       0.612723        16.6730 
 129   0.0000       0.619301        16.8520 
 130   0.0000       0.637049        17.3350 
 131   0.0000       0.639000        17.3881 
 132   0.0000       0.653065        17.7708 
 133   0.0000       0.657994        17.9049 
 134   0.0000       0.675394        18.3784 
 135   0.0000       0.702157        19.1067 
 136   0.0000       0.708449        19.2779 
 137   0.0000       0.725326        19.7371 
 138   0.0000       0.749529        20.3957 
 139   0.0000       0.770490        20.9661 
 140   0.0000       0.771018        20.9805 
 141   0.0000       0.777755        21.1638 
 142   0.0000       0.811318        22.0771 
 143   0.0000       0.828527        22.5454 
 144   0.0000       0.837914        22.8008 
 145   0.0000       0.851502        23.1706 
 146   0.0000       0.856289        23.3008 
 147   0.0000       0.873652        23.7733 
 148   0.0000       0.901193        24.5227 
 149   0.0000       0.912792        24.8383 
 150   0.0000       0.919967        25.0336 
 151   0.0000       0.937161        25.5015 
 152   0.0000       0.953899        25.9569 
 153   0.0000       0.955312        25.9954 
 154   0.0000       0.962897        26.2018 
 155   0.0000       0.972732        26.4694 
 156   0.0000       0.982528        26.7360 
 157   0.0000       0.983430        26.7605 
 158   0.0000       1.002782        27.2871 
 159   0.0000       1.004242        27.3268 
 160   0.0000       1.004491        27.3336 
 161   0.0000       1.034732        28.1565 
 162   0.0000       1.044203        28.4142 
 163   0.0000       1.068102        29.0645 
 164   0.0000       1.076705        29.2986 
 165   0.0000       1.079659        29.3790 
 166   0.0000       1.083729        29.4898 
 167   0.0000       1.139938        31.0193 
 168   0.0000       1.144402        31.1408 
 169   0.0000       1.155365        31.4391 
 170   0.0000       1.172696        31.9107 
 171   0.0000       1.189989        32.3812 
 172   0.0000       1.198742        32.6194 
 173   0.0000       1.210764        32.9466 
 174   0.0000       1.249309        33.9954 
 175   0.0000       1.262268        34.3480 
 176   0.0000       1.276254        34.7286 
 177   0.0000       1.278846        34.7992 
 178   0.0000       1.279855        34.8266 
 179   0.0000       1.293010        35.1846 
 180   0.0000       1.298381        35.3307 
 181   0.0000       1.357334        36.9349 
 182   0.0000       1.395112        37.9629 
 183   0.0000       1.406310        38.2676 
 184   0.0000       1.471008        40.0282 
 185   0.0000       1.518894        41.3312 
 186   0.0000       1.544697        42.0334 
 187   0.0000       1.586572        43.1728 
 188   0.0000       1.589484        43.2521 
 189   0.0000       1.590532        43.2806 
 190   0.0000       1.618043        44.0292 
 191   0.0000       1.632144        44.4129 
 192   0.0000       1.655496        45.0483 
 193   0.0000       1.656958        45.0881 
 194   0.0000       1.693406        46.0799 
 195   0.0000       1.694860        46.1195 
 196   0.0000       1.704711        46.3875 
 197   0.0000       1.716443        46.7068 
 198   0.0000       1.749110        47.5957 
 199   0.0000       1.761126        47.9227 
 200   0.0000       1.786995        48.6266 
 201   0.0000       1.809600        49.2417 
 202   0.0000       1.810920        49.2776 
 203   0.0000       1.813238        49.3407 
 204   0.0000       1.843385        50.1611 
 205   0.0000       1.848805        50.3085 
 206   0.0000       1.869590        50.8741 
 207   0.0000       1.909945        51.9723 
 208   0.0000       1.934174        52.6315 
 209   0.0000       1.947230        52.9868 
 210   0.0000       1.970813        53.6286 
 211   0.0000       1.974352        53.7248 
 212   0.0000       1.990919        54.1756 
 213   0.0000       2.011103        54.7249 
 214   0.0000       2.032096        55.2961 
 215   0.0000       2.045806        55.6692 
 216   0.0000       2.053636        55.8823 
 217   0.0000       2.110730        57.4359 
 218   0.0000       2.140947        58.2581 
 219   0.0000       2.147430        58.4345 
 220   0.0000       2.169621        59.0384 
 221   0.0000       2.173981        59.1570 
 222   0.0000       2.177103        59.2420 
 223   0.0000       2.205807        60.0231 
 224   0.0000       2.292858        62.3918 
 225   0.0000       2.323765        63.2329 
 226   0.0000       2.332082        63.4592 
 227   0.0000       2.332709        63.4762 
 228   0.0000       2.400886        65.3314 
 229   0.0000       2.430646        66.1412 
 230   0.0000       2.494384        67.8756 
 231   0.0000       2.563948        69.7686 
 232   0.0000       2.590668        70.4956 
 233   0.0000       2.595743        70.6337 
 234   0.0000       2.606092        70.9154 
 235   0.0000       2.627369        71.4943 
 236   0.0000       2.660042        72.3834 
 237   0.0000       2.660818        72.4045 
 238   0.0000       2.672862        72.7323 
 239   0.0000       2.673817        72.7583 
 240   0.0000       2.693959        73.3064 
 241   0.0000       2.768425        75.3327 
 242   0.0000       2.785740        75.8038 
 243   0.0000       2.829759        77.0017 
 244   0.0000       2.840761        77.3010 
 245   0.0000       2.858858        77.7935 
 246   0.0000       2.868123        78.0456 
 247   0.0000       2.883821        78.4727 
 248   0.0000       2.894632        78.7669 
 249   0.0000       2.903075        78.9967 
 250   0.0000       2.933055        79.8125 
 251   0.0000       2.937445        79.9320 
 252   0.0000       2.960007        80.5459 
 253   0.0000       2.980209        81.0956 
 254   0.0000       2.986943        81.2789 
 255   0.0000       3.001848        81.6844 
 256   0.0000       3.011910        81.9582 
 257   0.0000       3.100686        84.3739 
 258   0.0000       3.153735        85.8175 
 259   0.0000       3.188664        86.7680 
 260   0.0000       3.268854        88.9501 
 261   0.0000       3.307399        89.9989 
 262   0.0000       3.307778        90.0092 
 263   0.0000       3.341774        90.9343 
 264   0.0000       3.368421        91.6594 
 265   0.0000       3.454684        94.0067 
 266   0.0000       3.497196        95.1636 
 267   0.0000       3.559458        96.8578 
 268   0.0000       3.593542        97.7852 
 269   0.0000       3.681007       100.1653 
 270   0.0000       3.703703       100.7829 
 271   0.0000       3.753864       102.1478 
 272   0.0000       3.853639       104.8628 
 273   0.0000       3.884775       105.7101 
 274   0.0000       3.888814       105.8200 
 275   0.0000       3.890488       105.8656 
 276   0.0000       3.903168       106.2106 
 277   0.0000       3.924719       106.7970 
 278   0.0000       4.013495       109.2127 
 279   0.0000       4.060224       110.4843 
 280   0.0000       4.120269       112.1182 
 281   0.0000       4.144038       112.7650 
 282   0.0000       4.169132       113.4478 
 283   0.0000       4.406804       119.9152 
 284   0.0000       4.480753       121.9275 
 285   0.0000       4.503541       122.5476 
 286   0.0000       4.761149       129.5575 
 287   0.0000       4.942755       134.4992 
 288   0.0000       5.071544       138.0037 
 289   0.0000       5.099634       138.7681 
 290   0.0000       5.190309       141.2355 
 291   0.0000       5.218965       142.0152 
 292   0.0000       5.314965       144.6275 
 293   0.0000       5.698508       155.0643 
 294   0.0000       6.130056       166.8073 
 295   0.0000       6.418042       174.6438 
 296   0.0000       6.540763       177.9832 
 297   0.0000       6.841045       186.1543 
 298   0.0000       7.979813       217.1418 
 299   0.0000      17.546705       477.4701 
 300   0.0000      17.551294       477.5950 
 301   0.0000      17.639200       479.9870 
 302   0.0000      23.651054       643.5779 
 303   0.0000      23.890925       650.1051 
 304   0.0000      23.984305       652.6461 
 305   0.0000      24.029997       653.8895 
 306   0.0000      24.071164       655.0097 
 307   0.0000      24.181437       658.0104 
 308   0.0000      35.375163       962.6071 
 309   0.0000      35.657177       970.2811 
 310   0.0000      49.899210      1357.8265 
 311   0.0000      49.963233      1359.5687 
 312   0.0000      66.792325      1817.5116 
 313   0.0000     188.969194      5142.1132 

--------------------
FRAGMENT INFORMATION
--------------------
Fragment  1:    0   1   2   3   4   5 
Fragment  2:    6   7   8   9  10  11  12 
Fragment  3:   13  14  15  16 
Fragment  4:   17 


                    ********************************
                    * MULLIKEN POPULATION ANALYSIS *
                    ********************************

-------------------------
MULLIKEN FRAGMENT CHARGES
-------------------------
 Fragment   0 :  -0.436577
 Fragment   1 :   0.435617
 Fragment   2 :  -0.029058
 Fragment   3 :  -0.969983
Sum of fragment charges:   -1.0000000

---------------------------------
MULLIKEN FRAGMENT OVERLAP CHARGES
---------------------------------
                  0          1          2          3    
      0      21.120584   0.627650   0.000001  -0.001903
      1       0.627650  34.992017   0.000058   0.003892
      2       0.000001   0.000058  11.642905  -0.661292
      3      -0.001903   0.003892  -0.661292  17.299635

-----------------------
MULLIKEN ATOMIC CHARGES
-----------------------
   0 C :   -0.065319
   1 N :   -0.181272
   2 C :   -0.330948
   3 C :   -0.212922
   4 C :    0.409286
   5 C :   -0.055402
   6 N :   -0.072099
   7 O :   -0.052883
   8 O :   -0.238692
   9 F :   -0.101992
  10 H :    0.291248
  11 H :    0.284128
  12 H :    0.325906
  13 C :   -0.410891
  14 H :    0.126628
  15 H :    0.127670
  16 H :    0.127534
  17 S :   -0.969983
Sum of atomic charges:   -1.0000000

--------------------------------
MULLIKEN REDUCED ORBITAL CHARGES
--------------------------------
  0 C s       :     3.302802  s :     3.302802
      pz      :     0.676731  p :     2.602076
      px      :     0.985172
      py      :     0.940173
      dz2     :     0.052760  d :     0.160441
      dxz     :     0.048818
      dyz     :     0.028437
      dx2y2   :     0.013773
      dxy     :     0.016651
  1 N s       :     3.607340  s :     3.607340
      pz      :     1.139494  p :     3.543405
      px      :     1.238826
      py      :     1.165084
      dz2     :     0.008168  d :     0.030528
      dxz     :     0.007241
      dyz     :     0.004753
      dx2y2   :     0.005506
      dxy     :     0.004860
  2 C s       :     3.407216  s :     3.407216
      pz      :     0.815099  p :     2.839585
      px      :     1.174043
      py      :     0.850442
      dz2     :     0.023582  d :     0.084147
      dxz     :     0.032198
      dyz     :     0.014797
      dx2y2   :     0.007218
      dxy     :     0.006353
  3 C s       :     3.165559  s :     3.165559
      pz      :     1.149211  p :     2.994207
      px      :     0.872849
      py      :     0.972148
      dz2     :     0.015293  d :     0.053156
      dxz     :     0.017414
      dyz     :     0.005093
      dx2y2   :     0.008214
      dxy     :     0.007142
  4 C s       :     2.529768  s :     2.529768
      pz      :     0.898828  p :     3.003846
      px      :     1.260314
      py      :     0.844704
      dz2     :     0.016550  d :     0.057100
      dxz     :     0.015858
      dyz     :     0.010571
      dx2y2   :     0.007216
      dxy     :     0.006905
  5 C s       :     3.298640  s :     3.298640
      pz      :     1.079700  p :     2.683622
      px      :     0.473704
      py      :     1.130218
      dz2     :     0.013626  d :     0.073139
      dxz     :     0.029768
      dyz     :     0.010346
      dx2y2   :     0.011216
      dxy     :     0.008183
  6 N s       :     3.589478  s :     3.589478
      pz      :     1.058826  p :     3.373622
      px      :     1.214701
      py      :     1.100095
      dz2     :     0.027720  d :     0.108999
      dxz     :     0.039359
      dyz     :     0.023079
      dx2y2   :     0.008551
      dxy     :     0.010290
  7 O s       :     3.778382  s :     3.778382
      pz      :     1.026412  p :     4.255805
      px      :     1.828461
      py      :     1.400932
      dz2     :     0.009710  d :     0.018696
      dxz     :     0.003512
      dyz     :     0.005305
      dx2y2   :     0.000102
      dxy     :     0.000067
  8 O s       :     3.824499  s :     3.824499
      pz      :     1.624921  p :     4.402079
      px      :     1.218230
      py      :     1.558928
      dz2     :     0.001059  d :     0.012114
      dxz     :     0.004900
      dyz     :     0.000879
      dx2y2   :     0.003118
      dxy     :     0.002158
  9 F s       :     3.918732  s :     3.918732
      pz      :     1.389042  p :     5.177929
      px      :     1.914824
      py      :     1.874063
      dz2     :     0.003097  d :     0.005332
      dxz     :     0.000998
      dyz     :     0.001201
      dx2y2   :     0.000027
      dxy     :     0.000009
 10 H s       :     0.684848  s :     0.684848
      pz      :     0.005480  p :     0.023904
      px      :     0.014133
      py      :     0.004291
 11 H s       :     0.690909  s :     0.690909
      pz      :     0.016372  p :     0.024962
      px      :     0.003656
      py      :     0.004935
 12 H s       :     0.648572  s :     0.648572
      pz      :     0.007744  p :     0.025521
      px      :     0.013375
      py      :     0.004402
 13 C s       :     3.270102  s :     3.270102
      pz      :     1.052417  p :     3.088139
      px      :     1.004109
      py      :     1.031613
      dz2     :     0.011228  d :     0.052651
      dxz     :     0.005366
      dyz     :     0.012749
      dx2y2   :     0.010424
      dxy     :     0.012883
 14 H s       :     0.850684  s :     0.850684
      pz      :     0.004661  p :     0.022688
      px      :     0.010825
      py      :     0.007202
 15 H s       :     0.849594  s :     0.849594
      pz      :     0.012066  p :     0.022736
      px      :     0.004908
      py      :     0.005762
 16 H s       :     0.849754  s :     0.849754
      pz      :     0.007986  p :     0.022712
      px      :     0.004821
      py      :     0.009905
 17 S s       :     6.020234  s :     6.020234
      pz      :     3.891545  p :    10.918319
      px      :     3.365024
      py      :     3.661750
      dz2     :     0.004088  d :     0.031429
      dxz     :     0.005685
      dyz     :     0.003436
      dx2y2   :     0.004997
      dxy     :     0.013222


                     *******************************
                     * LOEWDIN POPULATION ANALYSIS *
                     *******************************

------------------------
LOEWDIN FRAGMENT CHARGES
------------------------
 Fragment   0 :   0.057337
 Fragment   1 :  -0.058613
 Fragment   2 :  -0.355580
 Fragment   3 :  -0.643144

----------------------------
LOEWDIN FRAGMENT BOND ORDERS
----------------------------
                  0          1          2          3    
      0      56.962666   6.779327   0.000486   0.001983
      1       6.779327  43.787643   0.000146   0.000799
      2       0.000486   0.000146  15.418617   1.743969
      3       0.001983   0.000799   1.743969  16.643144

----------------------
LOEWDIN ATOMIC CHARGES
----------------------
   0 C :    0.111209
   1 N :   -0.111018
   2 C :    0.076645
   3 C :   -0.033685
   4 C :    0.078044
   5 C :   -0.063859
   6 N :    0.241477
   7 O :   -0.154373
   8 O :   -0.339128
   9 F :   -0.078068
  10 H :    0.086761
  11 H :    0.084586
  12 H :    0.100131
  13 C :   -0.358864
  14 H :    0.001148
  15 H :    0.000899
  16 H :    0.001237
  17 S :   -0.643144

-------------------------------
LOEWDIN REDUCED ORBITAL CHARGES
-------------------------------
  0 C s       :     2.743819  s :     2.743819
      pz      :     0.849357  p :     2.815828
      px      :     1.080721
      py      :     0.885750
      dz2     :     0.112529  d :     0.329143
      dxz     :     0.100720
      dyz     :     0.050385
      dx2y2   :     0.033882
      dxy     :     0.031627
  1 N s       :     3.151221  s :     3.151221
      pz      :     1.301081  p :     3.902951
      px      :     1.416572
      py      :     1.185297
      dz2     :     0.017388  d :     0.056846
      dxz     :     0.015724
      dyz     :     0.007785
      dx2y2   :     0.009550
      dxy     :     0.006399
  2 C s       :     2.787013  s :     2.787013
      pz      :     1.033115  p :     2.954508
      px      :     1.097075
      py      :     0.824317
      dz2     :     0.060307  d :     0.181834
      dxz     :     0.069051
      dyz     :     0.027968
      dx2y2   :     0.014012
      dxy     :     0.010496
  3 C s       :     2.781218  s :     2.781218
      pz      :     1.081382  p :     3.128115
      px      :     1.092115
      py      :     0.954619
      dz2     :     0.034116  d :     0.124351
      dxz     :     0.045071
      dyz     :     0.008014
      dx2y2   :     0.022212
      dxy     :     0.014938
  4 C s       :     2.779271  s :     2.779271
      pz      :     1.065783  p :     3.014382
      px      :     1.108287
      py      :     0.840312
      dz2     :     0.040911  d :     0.128303
      dxz     :     0.039161
      dyz     :     0.021258
      dx2y2   :     0.015051
      dxy     :     0.011922
  5 C s       :     2.757946  s :     2.757946
      pz      :     1.088439  p :     3.125580
      px      :     0.957184
      py      :     1.079957
      dz2     :     0.039906  d :     0.180332
      dxz     :     0.071782
      dyz     :     0.019846
      dx2y2   :     0.031421
      dxy     :     0.017377
  6 N s       :     3.052082  s :     3.052082
      pz      :     1.205960  p :     3.500080
      px      :     1.215094
      py      :     1.079025
      dz2     :     0.060435  d :     0.206361
      dxz     :     0.076186
      dyz     :     0.035698
      dx2y2   :     0.017512
      dxy     :     0.016530
  7 O s       :     3.581211  s :     3.581211
      pz      :     1.283745  p :     4.540852
      px      :     1.838866
      py      :     1.418241
      dz2     :     0.020435  d :     0.032310
      dxz     :     0.005157
      dyz     :     0.006528
      dx2y2   :     0.000119
      dxy     :     0.000071
  8 O s       :     3.667373  s :     3.667373
      pz      :     1.709926  p :     4.651274
      px      :     1.369889
      py      :     1.571459
      dz2     :     0.001545  d :     0.020481
      dxz     :     0.009263
      dyz     :     0.001173
      dx2y2   :     0.005711
      dxy     :     0.002789
  9 F s       :     3.714934  s :     3.714934
      pz      :     1.535222  p :     5.355763
      px      :     1.934291
      py      :     1.886250
      dz2     :     0.004766  d :     0.007370
      dxz     :     0.001184
      dyz     :     0.001375
      dx2y2   :     0.000037
      dxy     :     0.000009
 10 H s       :     0.842816  s :     0.842816
      pz      :     0.016678  p :     0.070423
      px      :     0.042337
      py      :     0.011408
 11 H s       :     0.842961  s :     0.842961
      pz      :     0.047841  p :     0.072453
      px      :     0.011209
      py      :     0.013403
 12 H s       :     0.826644  s :     0.826644
      pz      :     0.023099  p :     0.073225
      px      :     0.038705
      py      :     0.011421
 13 C s       :     2.858466  s :     2.858466
      pz      :     1.122017  p :     3.393465
      px      :     1.141051
      py      :     1.130397
      dz2     :     0.022404  d :     0.106932
      dxz     :     0.010786
      dyz     :     0.025301
      dx2y2   :     0.020762
      dxy     :     0.027678
 14 H s       :     0.927221  s :     0.927221
      pz      :     0.013629  p :     0.071631
      px      :     0.035841
      py      :     0.022162
 15 H s       :     0.927278  s :     0.927278
      pz      :     0.039006  p :     0.071823
      px      :     0.014968
      py      :     0.017848
 16 H s       :     0.926951  s :     0.926951
      pz      :     0.024657  p :     0.071812
      px      :     0.014948
      py      :     0.032207
 17 S s       :     5.612861  s :     5.612861
      pz      :     3.858194  p :    10.993090
      px      :     3.453571
      py      :     3.681325
      dz2     :     0.004840  d :     0.037193
      dxz     :     0.006690
      dyz     :     0.004030
      dx2y2   :     0.005710
      dxy     :     0.015924


                      *****************************
                      * MAYER POPULATION ANALYSIS *
                      *****************************

  NA   - Mulliken gross atomic population
  ZA   - Total nuclear charge
  QA   - Mulliken gross atomic charge
  VA   - Mayer's total valence
  BVA  - Mayer's bonded valence
  FA   - Mayer's free valence

  ATOM       NA         ZA         QA         VA         BVA        FA
  0 C      6.0653     6.0000    -0.0653     4.3572     4.3572     0.0000
  1 N      7.1813     7.0000    -0.1813     2.6916     2.6916     0.0000
  2 C      6.3309     6.0000    -0.3309     4.0089     4.0089     0.0000
  3 C      6.2129     6.0000    -0.2129     4.3096     4.3096     0.0000
  4 C      5.5907     6.0000     0.4093     4.1873     4.1873     0.0000
  5 C      6.0554     6.0000    -0.0554     3.3194     3.3194     0.0000
  6 N      7.0721     7.0000    -0.0721     3.9212     3.9212    -0.0000
  7 O      8.0529     8.0000    -0.0529     2.1917     2.1917    -0.0000
  8 O      8.2387     8.0000    -0.2387     1.9954     1.9954     0.0000
  9 F      9.1020     9.0000    -0.1020     0.9627     0.9627     0.0000
 10 H      0.7088     1.0000     0.2912     0.8828     0.8828     0.0000
 11 H      0.7159     1.0000     0.2841     0.8987     0.8987     0.0000
 12 H      0.6741     1.0000     0.3259     0.8347     0.8347     0.0000
 13 C      6.4109     6.0000    -0.4109     3.5737     3.5737    -0.0000
 14 H      0.8734     1.0000     0.1266     0.9417     0.9417     0.0000
 15 H      0.8723     1.0000     0.1277     0.9392     0.9392    -0.0000
 16 H      0.8725     1.0000     0.1275     0.9433     0.9433    -0.0000
 17 S     16.9700    16.0000    -0.9700     0.6012     0.6012     0.0000

  Mayer bond orders larger than 0.100000
B(  0-C ,  1-N ) :   1.2954 B(  0-C ,  2-C ) :   0.1964 B(  0-C ,  3-C ) :   0.1400 
B(  0-C ,  4-C ) :   0.2926 B(  0-C ,  5-C ) :   1.2066 B(  0-C ,  6-N ) :  -0.1802 
B(  0-C ,  9-F ) :   1.4178 B(  1-N ,  2-C ) :   1.1945 B(  1-N ,  5-C ) :   0.1580 
B(  2-C ,  3-C ) :   1.5669 B(  2-C , 10-H ) :   0.8879 B(  3-C ,  4-C ) :   1.5157 
B(  3-C ,  8-O ) :   0.1350 B(  3-C , 11-H ) :   0.8427 B(  4-C ,  5-C ) :   1.5869 
B(  4-C ,  6-N ) :  -0.1492 B(  4-C ,  8-O ) :   0.1567 B(  4-C ,  9-F ) :  -0.1219 
B(  4-C , 12-H ) :   0.7504 B(  5-C ,  6-N ) :   0.7600 B(  5-C ,  8-O ) :  -0.1591 
B(  5-C ,  9-F ) :  -0.3696 B(  5-C , 12-H ) :   0.1197 B(  6-N ,  7-O ) :   1.8479 
B(  6-N ,  8-O ) :   1.6538 B(  7-O ,  8-O ) :   0.2594 B( 13-C , 14-H ) :   0.9818 
B( 13-C , 15-H ) :   0.9818 B( 13-C , 16-H ) :   0.9814 B( 13-C , 17-S ) :   0.6296 


-------
TIMINGS
-------

Total SCF time: 0 days 0 hours 0 min 38 sec 

Total time                  ....      38.373 sec
Sum of individual times     ....      37.115 sec  ( 96.7%)

Fock matrix formation       ....      33.957 sec  ( 88.5%)
  Split-RI-J                ....       2.396 sec  (  7.1% of F)
  Chain of spheres X        ....      22.210 sec  ( 65.4% of F)
  XC integration            ....       4.947 sec  ( 14.6% of F)
    Basis function eval.    ....       0.412 sec  (  8.3% of XC)
    Density eval.           ....       0.576 sec  ( 11.6% of XC)
    XC-Functional eval.     ....       0.534 sec  ( 10.8% of XC)
[...]
 290   0.0000       5.205267       141.6425 
 291   0.0000       5.281289       143.7112 
 292   0.0000       5.370760       146.1458 
 293   0.0000       5.848809       159.1542 
 294   0.0000       6.340002       172.5202 
 295   0.0000       6.427679       174.9060 
 296   0.0000       6.551393       178.2725 
 297   0.0000       6.862461       186.7371 
 298   0.0000       7.979839       217.1425 
 299   0.0000      17.546798       477.4726 
 300   0.0000      17.551357       477.5967 
 301   0.0000      17.639390       479.9922 
 302   0.0000      23.702635       644.9815 
 303   0.0000      23.954739       651.8416 
 304   0.0000      24.020229       653.6236 
 305   0.0000      24.030328       653.8985 
 306   0.0000      24.134246       656.7262 
 307   0.0000      24.245672       659.7583 
 308   0.0000      35.451373       964.6809 
 309   0.0000      35.737049       972.4545 
 310   0.0000      49.922905      1358.4713 
 311   0.0000      50.030587      1361.4015 
 312   0.0000      66.806233      1817.8900 
 313   0.0000     188.969219      5142.1139 

--------------------
FRAGMENT INFORMATION
--------------------
Fragment  1:    0   1   2   3   4   5 
Fragment  2:    6   7   8   9  10  11  12 
Fragment  3:   13  14  15  16 
Fragment  4:   17 


                    ********************************
                    * MULLIKEN POPULATION ANALYSIS *
                    ********************************

-------------------------
MULLIKEN FRAGMENT CHARGES
-------------------------
 Fragment   0 :  -0.474463
 Fragment   1 :   0.473435
 Fragment   2 :  -0.029351
 Fragment   3 :  -0.969621
Sum of fragment charges:   -1.0000000

---------------------------------
MULLIKEN FRAGMENT OVERLAP CHARGES
---------------------------------
                  0          1          2          3    
      0      18.711423   0.523028  -0.000024  -0.002290
      1       0.523028  35.057230   0.000021   0.004015
      2      -0.000024   0.000021  11.643416  -0.659125
      3      -0.002290   0.004015  -0.659125  17.298321

-----------------------
MULLIKEN ATOMIC CHARGES
-----------------------
   0 C :   -0.031593
   1 N :   -0.172808
   2 C :   -0.313694
   3 C :   -0.290392
   4 C :    0.493500
   5 C :   -0.159476
   6 N :   -0.009027
   7 O :   -0.163828
   8 O :   -0.118109
   9 F :   -0.119213
  10 H :    0.279607
  11 H :    0.281071
  12 H :    0.322935
  13 C :   -0.411178
  14 H :    0.126820
  15 H :    0.127526
  16 H :    0.127481
  17 S :   -0.969621
Sum of atomic charges:   -1.0000000

--------------------------------
MULLIKEN REDUCED ORBITAL CHARGES
--------------------------------
  0 C s       :     3.259363  s :     3.259363
      pz      :     0.670336  p :     2.602318
      px      :     0.987146
      py      :     0.944836
      dz2     :     0.057567  d :     0.169913
      dxz     :     0.049858
      dyz     :     0.029550
      dx2y2   :     0.014743
      dxy     :     0.018196
  1 N s       :     3.587434  s :     3.587434
      pz      :     1.141767  p :     3.550862
      px      :     1.255009
      py      :     1.154086
      dz2     :     0.008572  d :     0.034513
      dxz     :     0.008873
      dyz     :     0.005265
      dx2y2   :     0.005984
      dxy     :     0.005818
  2 C s       :     3.344816  s :     3.344816
      pz      :     0.828644  p :     2.879929
      px      :     1.180930
      py      :     0.870355
      dz2     :     0.024959  d :     0.088950
      dxz     :     0.033730
      dyz     :     0.015856
      dx2y2   :     0.007776
      dxy     :     0.006629
  3 C s       :     3.223331  s :     3.223331
      pz      :     1.150987  p :     3.011426
      px      :     0.886192
      py      :     0.974248
      dz2     :     0.015941  d :     0.055634
      dxz     :     0.018300
      dyz     :     0.005690
      dx2y2   :     0.008187
      dxy     :     0.007516
  4 C s       :     2.409794  s :     2.409794
      pz      :     0.927596  p :     3.037037
      px      :     1.260906
      py      :     0.848535
      dz2     :     0.017413  d :     0.059669
      dxz     :     0.015856
      dyz     :     0.011421
      dx2y2   :     0.007886
      dxy     :     0.007093
  5 C s       :     3.354128  s :     3.354128
      pz      :     1.101236  p :     2.731803
      px      :     0.497667
      py      :     1.132900
      dz2     :     0.012998  d :     0.073545
      dxz     :     0.031121
      dyz     :     0.010333
      dx2y2   :     0.010847
      dxy     :     0.008246
  6 N s       :     3.488314  s :     3.488314
      pz      :     1.041910  p :     3.381828
      px      :     1.232856
      py      :     1.107062
      dz2     :     0.037754  d :     0.138885
      dxz     :     0.045354
      dyz     :     0.028828
      dx2y2   :     0.011983
      dxy     :     0.014966
  7 O s       :     3.804131  s :     3.804131
      pz      :     1.022037  p :     4.341533
      px      :     1.840804
      py      :     1.478692
      dz2     :     0.009786  d :     0.018164
      dxz     :     0.003229
      dyz     :     0.005008
      dx2y2   :     0.000091
      dxy     :     0.000051
  8 O s       :     3.784413  s :     3.784413
      pz      :     1.560712  p :     4.313559
      px      :     1.319266
      py      :     1.433580
      dz2     :     0.002379  d :     0.020138
      dxz     :     0.007342
      dyz     :     0.002003
      dx2y2   :     0.004329
      dxy     :     0.004085
  9 F s       :     3.917990  s :     3.917990
      pz      :     1.400043  p :     5.195995
      px      :     1.916732
      py      :     1.879220
      dz2     :     0.003041  d :     0.005228
      dxz     :     0.000977
      dyz     :     0.001170
      dx2y2   :     0.000030
      dxy     :     0.000011
 10 H s       :     0.697094  s :     0.697094
      pz      :     0.004653  p :     0.023299
      px      :     0.014291
      py      :     0.004355
 11 H s       :     0.693743  s :     0.693743
      pz      :     0.016427  p :     0.025186
      px      :     0.003770
      py      :     0.004989
 12 H s       :     0.651221  s :     0.651221
      pz      :     0.007250  p :     0.025844
      px      :     0.014160
      py      :     0.004434
 13 C s       :     3.270423  s :     3.270423
      pz      :     1.052381  p :     3.088103
      px      :     1.003101
      py      :     1.032621
      dz2     :     0.011571  d :     0.052652
      dxz     :     0.005278
      dyz     :     0.012357
      dx2y2   :     0.010515
      dxy     :     0.012931
 14 H s       :     0.850465  s :     0.850465
      pz      :     0.004670  p :     0.022715
      px      :     0.010792
      py      :     0.007253
 15 H s       :     0.849750  s :     0.849750
      pz      :     0.012197  p :     0.022724
      px      :     0.004855
      py      :     0.005673
 16 H s       :     0.849811  s :     0.849811
      pz      :     0.007874  p :     0.022708
      px      :     0.004806
      py      :     0.010028
 17 S s       :     6.019712  s :     6.019712
      pz      :     3.893959  p :    10.918478
      px      :     3.352053
      py      :     3.672466
      dz2     :     0.004132  d :     0.031430
      dxz     :     0.005715
      dyz     :     0.003287
      dx2y2   :     0.005170
      dxy     :     0.013127


                     *******************************
                     * LOEWDIN POPULATION ANALYSIS *
                     *******************************

------------------------
LOEWDIN FRAGMENT CHARGES
------------------------
 Fragment   0 :   0.031133
 Fragment   1 :  -0.032403
 Fragment   2 :  -0.355603
 Fragment   3 :  -0.643127

----------------------------
LOEWDIN FRAGMENT BOND ORDERS
----------------------------
                  0          1          2          3    
      0      57.201732   6.725825   0.000488   0.001965
      1       6.725825  44.208998   0.000146   0.000803
      2       0.000488   0.000146  15.418743   1.743980
      3       0.001965   0.000803   1.743980  16.643127

----------------------
LOEWDIN ATOMIC CHARGES
----------------------
   0 C :    0.081870
   1 N :   -0.081089
   2 C :    0.055742
   3 C :   -0.033981
   4 C :    0.073196
   5 C :   -0.064606
   6 N :    0.202782
   7 O :   -0.220119
   8 O :   -0.194420
   9 F :   -0.088855
  10 H :    0.083044
  11 H :    0.085721
  12 H :    0.099444
  13 C :   -0.358824
  14 H :    0.000983
  15 H :    0.000976
  16 H :    0.001263
  17 S :   -0.643127

-------------------------------
LOEWDIN REDUCED ORBITAL CHARGES
-------------------------------
  0 C s       :     2.731250  s :     2.731250
      pz      :     0.851881  p :     2.836208
      px      :     1.095235
      py      :     0.889093
      dz2     :     0.122371  d :     0.350672
      dxz     :     0.103334
      dyz     :     0.052409
      dx2y2   :     0.037178
      dxy     :     0.035380
  1 N s       :     3.108626  s :     3.108626
      pz      :     1.295153  p :     3.907497
      px      :     1.438458
      py      :     1.173886
      dz2     :     0.018732  d :     0.064965
      dxz     :     0.018868
      dyz     :     0.009213
      dx2y2   :     0.010383
      dxy     :     0.007768
  2 C s       :     2.774437  s :     2.774437
      pz      :     1.041985  p :     2.976133
      px      :     1.093307
      py      :     0.840841
      dz2     :     0.063594  d :     0.193688
      dxz     :     0.073548
      dyz     :     0.030453
      dx2y2   :     0.015080
      dxy     :     0.011013
  3 C s       :     2.772490  s :     2.772490
      pz      :     1.079339  p :     3.132019
      px      :     1.096594
      py      :     0.956086
      dz2     :     0.035236  d :     0.129471
      dxz     :     0.047075
      dyz     :     0.008884
      dx2y2   :     0.022364
      dxy     :     0.015911
  4 C s       :     2.769336  s :     2.769336
      pz      :     1.075069  p :     3.022681
      px      :     1.103906
      py      :     0.843706
      dz2     :     0.042966  d :     0.134787
      dxz     :     0.040092
      dyz     :     0.023158
      dx2y2   :     0.016213
      dxy     :     0.012358
  5 C s       :     2.753250  s :     2.753250
      pz      :     1.088292  p :     3.129392
      px      :     0.961078
      py      :     1.080021
      dz2     :     0.039392  d :     0.181964
      dxz     :     0.074395
      dyz     :     0.020156
      dx2y2   :     0.030378
      dxy     :     0.017644
  6 N s       :     2.997913  s :     2.997913
      pz      :     1.220019  p :     3.530593
      px      :     1.229765
      py      :     1.080809
      dz2     :     0.079981  d :     0.268712
      dxz     :     0.092937
      dyz     :     0.045588
      dx2y2   :     0.025774
      dxy     :     0.024433
  7 O s       :     3.574500  s :     3.574500
      pz      :     1.273978  p :     4.613994
      px      :     1.848231
      py      :     1.491785
      dz2     :     0.020553  d :     0.031624
      dxz     :     0.004729
      dyz     :     0.006178
      dx2y2   :     0.000109
      dxy     :     0.000055
  8 O s       :     3.548722  s :     3.548722
      pz      :     1.680949  p :     4.610428
      px      :     1.478605
      py      :     1.450874
      dz2     :     0.003622  d :     0.035270
      dxz     :     0.015086
      dyz     :     0.002727
      dx2y2   :     0.008471
      dxy     :     0.005365
  9 F s       :     3.713756  s :     3.713756
      pz      :     1.540333  p :     5.367844
      px      :     1.936649
      py      :     1.890862
      dz2     :     0.004677  d :     0.007254
      dxz     :     0.001182
      dyz     :     0.001344
      dx2y2   :     0.000040
      dxy     :     0.000011
 10 H s       :     0.848305  s :     0.848305
      pz      :     0.014530  p :     0.068651
      px      :     0.042346
      py      :     0.011775
 11 H s       :     0.842117  s :     0.842117
      pz      :     0.047437  p :     0.072162
      px      :     0.011322
      py      :     0.013403
 12 H s       :     0.827138  s :     0.827138
      pz      :     0.021288  p :     0.073418
      px      :     0.040668
      py      :     0.011462
 13 C s       :     2.858387  s :     2.858387
      pz      :     1.121783  p :     3.393497
      px      :     1.141691
      py      :     1.130023
      dz2     :     0.023108  d :     0.106940
      dxz     :     0.010611
      dyz     :     0.024484
      dx2y2   :     0.020991
      dxy     :     0.027746
 14 H s       :     0.927251  s :     0.927251
      pz      :     0.013648  p :     0.071766
      px      :     0.035776
      py      :     0.022342
 15 H s       :     0.927266  s :     0.927266
      pz      :     0.039428  p :     0.071758
      px      :     0.014817
      py      :     0.017513
 16 H s       :     0.926947  s :     0.926947
      pz      :     0.024275  p :     0.071790
      px      :     0.014909
      py      :     0.032607
 17 S s       :     5.612816  s :     5.612816
      pz      :     3.860081  p :    10.993116
      px      :     3.443546
      py      :     3.689488
      dz2     :     0.004894  d :     0.037196
      dxz     :     0.006722
      dyz     :     0.003852
      dx2y2   :     0.005922
      dxy     :     0.015805


                      *****************************
                      * MAYER POPULATION ANALYSIS *
                      *****************************

  NA   - Mulliken gross atomic population
  ZA   - Total nuclear charge
  QA   - Mulliken gross atomic charge
  VA   - Mayer's total valence
  BVA  - Mayer's bonded valence
  FA   - Mayer's free valence

  ATOM       NA         ZA         QA         VA         BVA        FA
  0 C      6.0316     6.0000    -0.0316     4.2757     4.2757     0.0000
  1 N      7.1728     7.0000    -0.1728     2.7178     2.7178     0.0000
  2 C      6.3137     6.0000    -0.3137     4.0533     4.0533     0.0000
  3 C      6.2904     6.0000    -0.2904     4.4718     4.4718     0.0000
  4 C      5.5065     6.0000     0.4935     4.0831     4.0831    -0.0000
  5 C      6.1595     6.0000    -0.1595     3.3581     3.3581     0.0000
  6 N      7.0090     7.0000    -0.0090     4.0170     4.0170    -0.0000
  7 O      8.1638     8.0000    -0.1638     2.1068     2.1068     0.0000
  8 O      8.1181     8.0000    -0.1181     2.1937     2.1937    -0.0000
  9 F      9.1192     9.0000    -0.1192     0.9250     0.9250    -0.0000
 10 H      0.7204     1.0000     0.2796     0.8847     0.8847    -0.0000
 11 H      0.7189     1.0000     0.2811     0.9042     0.9042     0.0000
 12 H      0.6771     1.0000     0.3229     0.8359     0.8359    -0.0000
 13 C      6.4112     6.0000    -0.4112     3.5746     3.5746     0.0000
 14 H      0.8732     1.0000     0.1268     0.9416     0.9416     0.0000
 15 H      0.8725     1.0000     0.1275     0.9393     0.9393     0.0000
 16 H      0.8725     1.0000     0.1275     0.9434     0.9434     0.0000
 17 S     16.9696    16.0000    -0.9696     0.6013     0.6013    -0.0000

  Mayer bond orders larger than 0.100000
B(  0-C ,  1-N ) :   1.3006 B(  0-C ,  2-C ) :   0.1771 B(  0-C ,  3-C ) :   0.1724 
B(  0-C ,  4-C ) :   0.2396 B(  0-C ,  5-C ) :   1.2400 B(  0-C ,  6-N ) :  -0.1840 
B(  0-C ,  7-O ) :   0.1025 B(  0-C ,  8-O ) :  -0.1084 B(  0-C ,  9-F ) :   1.3668 
B(  1-N ,  2-C ) :   1.1811 B(  1-N ,  5-C ) :   0.1784 B(  2-C ,  3-C ) :   1.6505 
B(  2-C ,  5-C ) :   0.1070 B(  2-C , 10-H ) :   0.8884 B(  3-C ,  4-C ) :   1.4480 
B(  3-C ,  5-C ) :   0.1133 B(  3-C ,  8-O ) :   0.1620 B(  3-C , 11-H ) :   0.8384 
B(  4-C ,  5-C ) :   1.5502 B(  4-C ,  8-O ) :   0.2448 B(  4-C ,  9-F ) :  -0.1298 
B(  4-C , 12-H ) :   0.7131 B(  5-C ,  6-N ) :   0.6761 B(  5-C ,  7-O ) :  -0.1137 
B(  5-C ,  8-O ) :  -0.2117 B(  5-C ,  9-F ) :  -0.3423 B(  5-C , 12-H ) :   0.1463 
B(  6-N ,  7-O ) :   1.8197 B(  6-N ,  8-O ) :   1.8441 B(  7-O ,  8-O ) :   0.2467 
B( 13-C , 14-H ) :   0.9819 B( 13-C , 15-H ) :   0.9820 B( 13-C , 16-H ) :   0.9816 
B( 13-C , 17-S ) :   0.6301 

-------
TIMINGS
-------

Total SCF time: 0 days 0 hours 0 min 13 sec 

Total time                  ....      13.585 sec
Sum of individual times     ....      13.002 sec  ( 95.7%)

Fock matrix formation       ....      10.488 sec  ( 77.2%)
  Split-RI-J                ....       0.635 sec  (  6.1% of F)
  Chain of spheres X        ....       8.068 sec  ( 76.9% of F)
  XC integration            ....       0.920 sec  (  8.8% of F)
    Basis function eval.    ....       0.079 sec  (  8.6% of XC)
    Density eval.           ....       0.262 sec  ( 28.5% of XC)
    XC-Functional eval.     ....       0.046 sec  (  5.0% of XC)
    XC-Potential eval.      ....       0.067 sec  (  7.3% of XC)
Diagonalization             ....       0.026 sec  (  0.2%)
Density matrix formation    ....       0.011 sec  (  0.1%)
Population analysis         ....       0.124 sec  (  0.9%)
Initial guess               ....       0.041 sec  (  0.3%)
Orbital Transformation      ....       0.000 sec  (  0.0%)
Orbital Orthonormalization  ....       0.021 sec  (  0.2%)
DIIS solution               ....       0.011 sec  (  0.1%)
SOSCF solution              ....       0.056 sec  (  0.4%)
Grid generation             ....       2.245 sec  ( 16.5%)

Maximum memory used throughout the entire SCF-calculation: 68.4 MB

-------------------------   --------------------
FINAL SINGLE POINT ENERGY      -990.265419778303
-------------------------   --------------------

                                *** OPTIMIZATION RUN DONE ***

                            ***************************************
                            *     ORCA property calculations      *
                            ***************************************

                                    ---------------------
                                    Active property flags
                                    ---------------------
   (+) Dipole Moment


------------------------------------------------------------------------------
                       ORCA ELECTRIC PROPERTIES CALCULATION
------------------------------------------------------------------------------

Dipole Moment Calculation                       ... on
Quadrupole Moment Calculation                   ... off
Polarizability Calculation                      ... off
GBWName                                         ... structure_opt.gbw
Electron density                                ... structure_opt.scfp
The origin for moment calculation is the CENTER OF MASS  = ( 1.508642,  2.224694  4.497195)

-------------
DIPOLE MOMENT
-------------
                                X             Y             Z
Electronic contribution:    -22.85535     -13.73296      -6.29923
Nuclear contribution   :     15.94339       8.63192       9.82840
                        -----------------------------------------
Total Dipole Moment    :     -6.91196      -5.10103       3.52917
                        -----------------------------------------
Magnitude (a.u.)       :      9.28713
Magnitude (Debye)      :     23.60600



--------------------
Rotational spectrum 
--------------------
 
Rotational constants in cm-1:     0.041951     0.006678     0.006294 
Rotational constants in MHz :  1257.651485   200.193573   188.701809 

 Dipole components along the rotational axes: 
x,y,z [a.u.] :    -8.391707     3.978150     0.065661 
x,y,z [Debye]:   -21.330023    10.111653     0.166898 

 

Timings for individual modules:

Sum of individual times         ...     1388.251 sec (=  23.138 min)
GTO integral calculation        ...       70.631 sec (=   1.177 min)   5.1 %
SCF iterations                  ...     1097.818 sec (=  18.297 min)  79.1 %
SCF Gradient evaluation         ...      218.128 sec (=   3.635 min)  15.7 %
Geometry relaxation             ...        1.675 sec (=   0.028 min)   0.1 %
                             ****ORCA TERMINATED NORMALLY****
TOTAL RUN TIME: 0 days 0 hours 24 minutes 29 seconds 654 msec
