
                                 *****************
                                 * O   R   C   A *
                                 *****************

                                            #,                                       
                                            ###                                      
                                            ####                                     
                                            #####                                    
                                            ######                                   
                                           ########,                                 
                                     ,,################,,,,,                         
                               ,,#################################,,                 
                          ,,##########################################,,             
                       ,#########################################, ''#####,          
                    ,#############################################,,   '####,        
                  ,##################################################,,,,####,       
                ,###########''''           ''''###############################       
              ,#####''   ,,,,##########,,,,          '''####'''          '####       
            ,##' ,,,,###########################,,,                        '##       
           ' ,,###''''                  '''############,,,                           
         ,,##''                                '''############,,,,        ,,,,,,###''
      ,#''                                            '''#######################'''  
     '                                                          ''''####''''         
             ,#######,   #######,   ,#######,      ##                                
            ,#'     '#,  ##    ##  ,#'     '#,    #''#        ######   ,####,        
            ##       ##  ##   ,#'  ##            #'  '#       #        #'  '#        
            ##       ##  #######   ##           ,######,      #####,   #    #        
            '#,     ,#'  ##    ##  '#,     ,#' ,#      #,         ##   #,  ,#        
             '#######'   ##     ##  '#######'  #'      '#     #####' # '####'        



                  #######################################################
                  #                        -***-                        #
                  #          Department of theory and spectroscopy      #
                  #    Directorship and core code : Frank Neese         #
                  #        Max Planck Institute fuer Kohlenforschung    #
                  #                Kaiser Wilhelm Platz 1               #
                  #                 D-45470 Muelheim/Ruhr               #
                  #                      Germany                        #
                  #                                                     #
                  #                  All rights reserved                #
                  #                        -***-                        #
                  #######################################################


                         Program Version 5.0.4 -  RELEASE  -


 With contributions from (in alphabetic order):
   Daniel Aravena         : Magnetic Suceptibility
   Michael Atanasov       : Ab Initio Ligand Field Theory (pilot matlab implementation)
   Alexander A. Auer      : GIAO ZORA, VPT2 properties, NMR spectrum
   Ute Becker             : Parallelization
   Giovanni Bistoni       : ED, misc. LED, open-shell LED, HFLD
   Martin Brehm           : Molecular dynamics
   Dmytro Bykov           : SCF Hessian
   Vijay G. Chilkuri      : MRCI spin determinant printing, contributions to CSF-ICE
   Dipayan Datta          : RHF DLPNO-CCSD density
   Achintya Kumar Dutta   : EOM-CC, STEOM-CC
   Dmitry Ganyushin       : Spin-Orbit,Spin-Spin,Magnetic field MRCI
   Miquel Garcia          : C-PCM and meta-GGA Hessian, CC/C-PCM, Gaussian charge scheme
   Yang Guo               : DLPNO-NEVPT2, F12-NEVPT2, CIM, IAO-localization
   Andreas Hansen         : Spin unrestricted coupled pair/coupled cluster methods
   Benjamin Helmich-Paris : MC-RPA, TRAH-SCF, COSX integrals
   Lee Huntington         : MR-EOM, pCC
   Robert Izsak           : Overlap fitted RIJCOSX, COSX-SCS-MP3, EOM
   Marcus Kettner         : VPT2
   Christian Kollmar      : KDIIS, OOCD, Brueckner-CCSD(T), CCSD density, CASPT2, CASPT2-K
   Simone Kossmann        : Meta GGA functionals, TD-DFT gradient, OOMP2, MP2 Hessian
   Martin Krupicka        : Initial AUTO-CI
   Lucas Lang             : DCDCAS
   Marvin Lechner         : AUTO-CI (C++ implementation), FIC-MRCC
   Dagmar Lenk            : GEPOL surface, SMD
   Dimitrios Liakos       : Extrapolation schemes; Compound Job, initial MDCI parallelization
   Dimitrios Manganas     : Further ROCIS development; embedding schemes
   Dimitrios Pantazis     : SARC Basis sets
   Anastasios Papadopoulos: AUTO-CI, single reference methods and gradients
   Taras Petrenko         : DFT Hessian,TD-DFT gradient, ASA, ECA, R-Raman, ABS, FL, XAS/XES, NRVS
   Peter Pinski           : DLPNO-MP2, DLPNO-MP2 Gradient
   Christoph Reimann      : Effective Core Potentials
   Marius Retegan         : Local ZFS, SOC
   Christoph Riplinger    : Optimizer, TS searches, QM/MM, DLPNO-CCSD(T), (RO)-DLPNO pert. Triples
   Tobias Risthaus        : Range-separated hybrids, TD-DFT gradient, RPA, STAB
   Michael Roemelt        : Original ROCIS implementation
   Masaaki Saitow         : Open-shell DLPNO-CCSD energy and density
   Barbara Sandhoefer     : DKH picture change effects
   Avijit Sen             : IP-ROCIS
   Kantharuban Sivalingam : CASSCF convergence, NEVPT2, FIC-MRCI
   Bernardo de Souza      : ESD, SOC TD-DFT
   Georgi Stoychev        : AutoAux, RI-MP2 NMR, DLPNO-MP2 response
   Willem Van den Heuvel  : Paramagnetic NMR
   Boris Wezisla          : Elementary symmetry handling
   Frank Wennmohs         : Technical directorship


 We gratefully acknowledge several colleagues who have allowed us to
 interface, adapt or use parts of their codes:
   Stefan Grimme, W. Hujo, H. Kruse, P. Pracht,  : VdW corrections, initial TS optimization,
                  C. Bannwarth, S. Ehlert          DFT functionals, gCP, sTDA/sTD-DF
   Ed Valeev, F. Pavosevic, A. Kumar             : LibInt (2-el integral package), F12 methods
   Garnet Chan, S. Sharma, J. Yang, R. Olivares  : DMRG
   Ulf Ekstrom                                   : XCFun DFT Library
   Mihaly Kallay                                 : mrcc  (arbitrary order and MRCC methods)
   Jiri Pittner, Ondrej Demel                    : Mk-CCSD
   Frank Weinhold                                : gennbo (NPA and NBO analysis)
   Christopher J. Cramer and Donald G. Truhlar   : smd solvation model
   Lars Goerigk                                  : TD-DFT with DH, B97 family of functionals
   V. Asgeirsson, H. Jonsson                     : NEB implementation
   FAccTs GmbH                                   : IRC, NEB, NEB-TS, DLPNO-Multilevel, CI-OPT
                                                   MM, QMMM, 2- and 3-layer-ONIOM, Crystal-QMMM,
                                                   LR-CPCM, SF, NACMEs, symmetry and pop. for TD-DFT,
                                                   nearIR, NL-DFT gradient (VV10), updates on ESD,
                                                   ML-optimized integration grids
   S Lehtola, MJT Oliveira, MAL Marques          : LibXC Library
   Liviu Ungur et al                             : ANISO software


 Your calculation uses the libint2 library for the computation of 2-el integrals
 For citations please refer to: http://libint.valeyev.net

 Your ORCA version has been built with support for libXC version: 5.1.0
 For citations please refer to: https://tddft.org/programs/libxc/

 This ORCA versions uses:
   CBLAS   interface :  Fast vector & matrix operations
   LAPACKE interface :  Fast linear algebra routines
   SCALAPACK package :  Parallel linear algebra routines
   Shared memory     :  Shared parallel matrices
   BLAS/LAPACK       :  OpenBLAS 0.3.15  USE64BITINT DYNAMIC_ARCH NO_AFFINITY SkylakeX SINGLE_THREADED
        Core in use  :  SkylakeX
   Copyright (c) 2011-2014, The OpenBLAS Project




***************************************
The coordinates will be read from file: reactants.xyz
***************************************


Your calculation utilizes the SMD solvation module
Please cite in your paper:
A.V. Marenich, C.J. Cramer, D.G. Truhlar J. Phys. Chem. B, 113, (2009), 6378 

XCFun DFT library Copyright 2009-2010 Ulf Ekstrom and contributors.
See http://admol.org/xcfun for more information.
This is free software; see the source code for copying conditions.
There is ABSOLUTELY NO WARRANTY; not even for MERCHANTABILITY or FITNESS FOR A PARTICULAR PURPOSE.
For details see the documentation.
Scientific users of this library should cite U. Ekstrom, L. Visscher, R. Bast, A. J. Thorvaldsen and K. Ruud;
J.Chem.Theor.Comp. 2010, DOI: 10.1021/ct100117s
XCFun Version 0.99 

================================================================================

----- Orbital basis set information -----
Your calculation utilizes the basis: 6-311++G**
   H, Li - Ne  : R. Krishnan, J. S. Binkley, R. Seeger and J. A. Pople, J. Chem. Phys. 72, 650 (1980).
   Na - Ar     : A. D. McLean and G. S. Chandler J. Chem. Phys. 72, 5639, (1980).
   K  - Ca     : J.-P. Blaudeau, M. P. McGrath, L. A. Curtiss and L. Radom, J. Chem. Phys. 107, 5016 (1997).
   Ga - Kr     : L. A. Curtiss, M. P. McGrath, J.-P. Blandeau, N. E. Davis, R. C. Binning and L. Radom, J. Chem. Phys. 103, 6104 (1995).
   Pol./Diff.
   H, Li - Cl  : T. Clark, J. Chandrasekhar and P. v. R. Schleyer, J. Comp. Chem. 4, 294 (1983).
   H - Ne      : M. J. Frisch, J. A. Pople and J. S. Binkley, J. Chem. Phys. 80, 3265 (1984).

----- AuxJ basis set information -----
Your calculation utilizes the auxiliary basis: def2/J
   F. Weigend, Phys. Chem. Chem. Phys. 8, 1057 (2006).

================================================================================
                                        WARNINGS
                       Please study these warnings very carefully!
================================================================================


WARNING: Geometry Optimization
  ===> : Switching off AutoStart
         For restart on a previous wavefunction, please use MOREAD

INFO   : the flag for use of the SHARK integral package has been found!

================================================================================
                                       INPUT FILE
================================================================================
NAME = structure_opt.inp
|  1> !wb97x 6-311++G** OPT CPCM(WATER)
|  2> %maxcore  3500
|  3> %pal
|  4> nprocs 24
|  5> end
|  6> %cpcm
|  7> smd true
|  8> SMDsolvent "water"
|  9> end
| 10> %geom
| 11> ConstrainFragments {1} end
| 12> ConstrainFragments {4} end
| 13> ConnectFragments
| 14> { 1 2 C 5 7 }
| 15> { 1 2 C 0 9 }
| 16> { 2 3 C 13 5 }
| 17> { 3 4 C 13 17 }
| 18> end
| 19> end
| 20> * XYZfile -1 1 reactants.xyz
| 21> %geom
| 22> Fragments
| 23> 1 {0:5} end
| 24> 2 {6:12} end
| 25> 3 {13:16} end
| 26> 4 {17} end
| 27> end
| 28> end
| 29> 
| 30>                          ****END OF INPUT****
================================================================================

                       *****************************
                       * Geometry Optimization Run *
                       *****************************

Geometry optimization settings:
Update method            Update   .... BFGS
Choice of coordinates    CoordSys .... Z-matrix Internals
Initial Hessian          InHess   .... Almoef's Model

Convergence Tolerances:
Energy Change            TolE     ....  5.0000e-06 Eh
Max. Gradient            TolMAXG  ....  3.0000e-04 Eh/bohr
RMS Gradient             TolRMSG  ....  1.0000e-04 Eh/bohr
Max. Displacement        TolMAXD  ....  4.0000e-03 bohr
RMS Displacement         TolRMSD  ....  2.0000e-03 bohr
Strict Convergence                ....  False
------------------------------------------------------------------------------
                        ORCA OPTIMIZATION COORDINATE SETUP
------------------------------------------------------------------------------

The optimization will be done in new redundant internal coordinates
Making redundant internal coordinates   ...  (new redundants) done
Evaluating the initial hessian          ...  (Almloef) done
Evaluating the coordinates              ...  done
Calculating the B-matrix                .... done
Calculating the G-matrix                .... done
Diagonalizing the G-matrix              .... done
Imposing constraints:
 Iter   0:  RMS(Cart)=    0.0000000000 RMS(Int)=    0.0000000000
CONVERGED
Small eigenvalue found = 1.267e-02
Small eigenvalue found = 2.142e-02
Small eigenvalue found = 2.961e-02
The first mode is                       ....   70
The number of degrees of freedom        ....   48
Storing new coordinates                 .... done

    -----------------------------------------------------------------
                    Redundant Internal Coordinates


    -----------------------------------------------------------------
         Definition                    Initial Value    Approx d2E/dq
    -----------------------------------------------------------------
      1. B(N   1,C   0)                  1.3611         0.622347   
      2. B(C   2,N   1)                  1.3582         0.628875   
      3. B(C   3,C   2)                  1.3949         0.613658   
      4. B(C   4,C   3)                  1.3934         0.616971   
      5. B(C   5,C   0)                  1.4122         0.575774   
      6. B(C   5,C   4)                  1.4061         0.588917   
      7. B(O   7,C   5)                  2.3435         0.016853 C 
      8. B(O   7,N   6)                  1.2480         0.844503   
      9. B(O   8,N   6)                  1.3769         0.525866   
     10. B(F   9,C   0)                  1.3500         0.602260 C 
     11. B(F   9,N   6)                  2.8678         0.002044   
     12. B(F   9,O   7)                  2.5821         0.005837   
     13. B(H  11,H  10)                  2.4818         0.000415   
     14. B(H  12,O   8)                  2.5152         0.001717   
     15. B(H  12,H  11)                  2.4663         0.000439   
     16. B(H  12,N   6)                  2.7029         0.000861   
     17. B(C  13,H  12)                  7.1374         0.000000 C 
     18. B(H  14,C  13)                  1.0945         0.354205   
     19. B(H  15,C  13)                  1.0928         0.356363   
     20. B(H  16,C  13)                  1.0938         0.355044   
     21. B(S  17,C  13)                  1.8030         0.369495 C 
     22. A(N   1,C   0,C   5)          120.1571         0.425830   
     23. A(C   5,C   0,F   9)          121.1725         0.421471 C 
     24. A(N   1,C   0,F   9)          118.6704         0.424592 C 
     25. A(C   0,N   1,C   2)          121.9524         0.429796   
     26. A(N   1,C   2,C   3)          120.0262         0.431531   
     27. A(C   2,C   3,C   4)          119.3498         0.432882   
     28. A(C   3,C   4,C   5)          120.4718         0.429694   
     29. A(C   4,C   5,O   7)          147.4261         0.238582 C 
     30. A(C   0,C   5,O   7)           94.5313         0.237820 C 
     31. A(C   0,C   5,C   4)          118.0425         0.424407   
     32. A(O   8,N   6,H  12)           67.2752         0.152046   
     33. A(O   7,N   6,O   8)          118.5014         0.433822   
     34. A(O   7,N   6,F   9)           64.2090         0.186619   
     35. A(O   7,N   6,H  12)          174.2234         0.159181   
     36. A(F   9,N   6,H  12)          110.0144         0.106848   
     37. A(N   6,O   7,F   9)           89.9947         0.212791   
     38. A(C   5,O   7,N   6)           31.7456         0.248611 C 
     39. A(C   5,O   7,F   9)           58.2491         0.140475 C 
     40. A(N   6,O   8,H  12)           82.3972         0.162696   
     41. A(C   0,F   9,O   7)           86.0471         0.203997 C 
     42. A(N   6,F   9,O   7)           25.7962         0.120482   
     43. A(C   0,F   9,N   6)           60.2509         0.179684 C 
     44. A(H  10,H  11,H  12)          119.7063         0.095112   
     45. A(H  11,H  12,C  13)           80.7437         0.089232 C 
     46. A(N   6,H  12,O   8)           30.3275         0.103999   
     47. A(N   6,H  12,H  11)          126.7169         0.097913   
     48. A(O   8,H  12,H  11)          157.0445         0.099419   
     49. A(N   6,H  12,C  13)           96.1934         0.089333 C 
     50. A(O   8,H  12,C  13)           98.8385         0.089390 C 
     51. A(H  14,C  13,H  16)          108.8913         0.289444   
     52. A(H  15,C  13,H  16)          109.0366         0.289720   
     53. A(H  12,C  13,S  17)           34.5331         0.090645   
     54. A(H  16,C  13,S  17)          109.8828         0.339411 C 
     55. A(H  12,C  13,H  15)           87.7948         0.090319 C 
     56. A(H  12,C  13,H  16)           94.1562         0.090318 C 
     57. A(H  14,C  13,S  17)          109.9553         0.339277 C 
     58. A(H  15,C  13,S  17)          110.0250         0.339621 C 
     59. A(H  12,C  13,H  14)          144.1083         0.090317 C 
     60. A(H  14,C  13,H  15)          109.0232         0.289613   
     61. D(C   2,N   1,C   0,C   5)     -0.1041         0.028432   
     62. D(C   2,N   1,C   0,F   9)    179.9112         0.028432 C 
     63. D(C   3,C   2,N   1,C   0)      0.1066         0.025783   
     64. D(C   4,C   3,C   2,N   1)     -0.0956         0.020965   
     65. D(C   5,C   4,C   3,C   2)      0.0854         0.021202   
     66. D(C   4,C   5,C   0,N   1)      0.0896         0.022761   
     67. D(C   4,C   5,C   0,F   9)   -179.9260         0.022761 C 
     68. D(C   0,C   5,C   4,C   3)     -0.0818         0.021656   
     69. D(O   7,C   5,C   4,C   3)   -179.9036         0.021656 C 
     70. D(O   7,C   5,C   0,N   1)    179.9933         0.022761 C 
     71. D(O   7,C   5,C   0,F   9)     -0.0223         0.022761 C 
     72. D(N   6,O   7,C   5,C   0)   -179.9521         0.001517 C 
     73. D(N   6,O   7,C   5,C   4)     -0.1099         0.001517 C 
     74. D(F   9,O   7,C   5,C   0)      0.0117         0.001517 C 
     75. D(F   9,O   7,C   5,C   4)    179.8539         0.001517 C 
     76. D(F   9,O   7,N   6,H  12)      0.1568         0.079747   
     77. D(F   9,O   7,N   6,O   8)    179.9932         0.079747   
     78. D(C   5,O   7,N   6,H  12)      0.1876         0.079747 C 
     79. D(C   5,O   7,N   6,O   8)   -179.9761         0.079747 C 
     80. D(C   5,O   7,N   6,F   9)      0.0308         0.079747 C 
     81. D(H  12,O   8,N   6,O   7)   -179.9821         0.025649   
     82. D(C   0,F   9,O   7,C   5)     -0.0123         0.001503 C 
     83. D(O   7,F   9,C   0,N   1)   -179.9952         0.032536 C 
     84. D(N   6,F   9,O   7,C   5)     -0.0190         0.001503 C 
     85. D(O   7,F   9,C   0,C   5)      0.0202         0.032536 C 
     86. D(O   7,F   9,N   6,H  12)   -179.9832         0.001500   
     87. D(N   6,F   9,C   0,C   5)      0.0236         0.032536 C 
     88. D(C   0,F   9,N   6,O   7)   -179.9922         0.001500 C 
     89. D(C   0,F   9,N   6,H  12)      0.0246         0.001500 C 
     90. D(N   6,F   9,C   0,N   1)   -179.9918         0.032536 C 
     91. D(C   0,F   9,O   7,N   6)      0.0068         0.001503 C 
     92. D(O   7,F   9,O   8,H  12)   -179.9897         0.001500   
     93. D(C   0,F   9,O   8,H  12)      0.0232         0.001500 C 
     94. D(O   8,H  12,N   6,O   7)    179.8441         0.001501   
     95. D(O   8,H  12,N   6,F   9)    179.9943         0.001501   
     96. D(H  11,H  12,N   6,O   7)     -0.1748         0.001501   
     97. D(C  13,H  12,O   8,N   6)    -87.1579         0.001502 C 
     98. D(H  11,H  12,N   6,F   9)     -0.0245         0.001501   
     99. D(C  13,H  12,N   6,O   7)    -83.2305         0.001501 C 
    100. D(C  13,H  12,N   6,O   8)     96.9254         0.001501 C 
    101. D(C  13,H  12,N   6,F   9)    -83.0802         0.001501 C 
    102. D(H  11,H  12,N   6,O   8)    179.9811         0.001501   
    103. D(H  11,H  12,O   8,N   6)     -0.0388         0.001502   
    104. D(N   6,H  12,H  11,H  10)      0.0466         0.001502   
    105. D(O   8,H  12,H  11,H  10)      0.0710         0.001502   
    106. D(C  13,H  12,H  11,H  10)     90.8952         0.001502 C 
    107. D(H  14,C  13,H  12,N   6)     22.3868         0.001500 C 
    108. D(H  14,C  13,H  12,O   8)     52.8698         0.001500 C 
    109. D(H  14,C  13,H  12,H  11)   -103.8853         0.001500 C 
    110. D(H  16,C  13,H  12,H  11)     26.9697         0.001500 C 
    111. D(H  15,C  13,H  12,O   8)    -67.3413         0.001500 C 
    112. D(H  15,C  13,H  12,H  11)    135.9036         0.001500 C 
    113. D(H  16,C  13,H  12,N   6)    153.2418         0.001500 C 
    114. D(H  15,C  13,H  12,N   6)    -97.8243         0.001500 C 
    115. D(H  16,C  13,H  12,O   8)   -176.2752         0.001500 C 
    116. D(S  17,C  13,H  12,N   6)     33.5111         0.001500   
    117. D(S  17,C  13,H  12,O   8)     63.9940         0.001500   
    118. D(S  17,C  13,H  12,H  11)    -92.7610         0.001500   
    -----------------------------------------------------------------

Number of atoms                         .... 18
Number of degrees of freedom            .... 118

         *************************************************************
         *                GEOMETRY OPTIMIZATION CYCLE   1            *
         *************************************************************
---------------------------------
CARTESIAN COORDINATES (ANGSTROEM)
---------------------------------
  C      0.000000    0.000000    1.820000
  N      1.178000   -0.196000    2.473000
  C      1.255000   -0.207000    3.829000
  C      0.105000   -0.016000    4.595000
  C     -1.116000    0.187000    3.955000
  C     -1.192000    0.198000    2.551000
  N     -2.456000    0.409000    1.893000
  O     -2.541000    0.423000    0.648000
  O     -3.602000    0.600000    2.632000
  F      0.000000    0.000000    0.470000
  H      2.209000   -0.366000    4.313000
  H      0.163000   -0.026000    5.676000
  H     -2.005000    0.335000    4.557000
  C     -2.201000   -6.773000    5.174000
  H     -2.086000   -7.714000    4.627000
  H     -3.240000   -6.674000    5.498000
  H     -1.553000   -6.794000    6.055000
  S     -1.750000   -5.386000    4.114000

----------------------------
CARTESIAN COORDINATES (A.U.)
----------------------------
  NO LB      ZA    FRAG     MASS         X           Y           Z
   0 C     6.0000    1    12.011    0.000000    0.000000    3.439302
   1 N     7.0000    1    14.007    2.226097   -0.370386    4.673293
   2 C     6.0000    1    12.011    2.371606   -0.391173    7.235761
   3 C     6.0000    1    12.011    0.198421   -0.030236    8.683292
   4 C     6.0000    1    12.011   -2.108934    0.353379    7.473867
   5 C     6.0000    1    12.011   -2.252554    0.374166    4.820691
   6 N     7.0000    2    14.007   -4.641167    0.772898    3.577252
   7 O     8.0000    2    15.999   -4.801794    0.799354    1.224543
   8 O     8.0000    2    15.999   -6.806794    1.133836    4.973759
   9 F     9.0000    2    18.998    0.000000    0.000000    0.888171
  10 H     1.0000    2     1.008    4.174405   -0.691640    8.150389
  11 H     1.0000    2     1.008    0.308025   -0.049133   10.726086
  12 H     1.0000    2     1.008   -3.788901    0.633058    8.611482
  13 C     6.0000    3    12.011   -4.159287  -12.799115    9.777443
  14 H     1.0000    3     1.008   -3.941969  -14.577347    8.743763
  15 H     1.0000    3     1.008   -6.122713  -12.612032   10.389714
  16 H     1.0000    3     1.008   -2.934745  -12.838799   11.442292
  17 S    16.0000    4    32.060   -3.307021  -10.178065    7.774333

----------------------------------------------
CARTESIAN COORDINATES OF FRAGMENTS (ANGSTROEM)
----------------------------------------------

 FRAGMENT 1 
  C     0.000000    0.000000    1.820000
  N     1.178000   -0.196000    2.473000
  C     1.255000   -0.207000    3.829000
  C     0.105000   -0.016000    4.595000
  C    -1.116000    0.187000    3.955000
  C    -1.192000    0.198000    2.551000

 FRAGMENT 2 
  N    -2.456000    0.409000    1.893000
  O    -2.541000    0.423000    0.648000
  O    -3.602000    0.600000    2.632000
  F     0.000000    0.000000    0.470000
  H     2.209000   -0.366000    4.313000
  H     0.163000   -0.026000    5.676000
  H    -2.005000    0.335000    4.557000

 FRAGMENT 3 
  C    -2.201000   -6.773000    5.174000
  H    -2.086000   -7.714000    4.627000
  H    -3.240000   -6.674000    5.498000
  H    -1.553000   -6.794000    6.055000

 FRAGMENT 4 
  S    -1.750000   -5.386000    4.114000

--------------------------------
INTERNAL COORDINATES (ANGSTROEM)
--------------------------------
 C      0   0   0     0.000000000000     0.00000000     0.00000000
 N      1   0   0     1.361069065110     0.00000000     0.00000000
 C      2   1   0     1.358228993948   121.95243626     0.00000000
 C      3   2   1     1.394896770374   120.02620694     0.10655554
 C      4   3   2     1.393431017309   119.34983770   359.90435571
 C      5   4   3     1.406098502951   120.47178172     0.08537773
 N      6   5   4     1.440548853736   120.30882193   180.03842131
 O      7   6   5     1.247976762604   121.13704526   179.93147861
 O      7   6   5     1.376923382037   120.36156660   359.90709941
 F      1   2   3     1.350000000000   118.67037638   179.91115691
 H      3   2   1     1.081504969938   119.86701156   179.98746005
 H      4   3   2     1.082601034546   120.19197482   179.89186186
 H      5   4   3     1.083803026384   118.91636700   180.02085854
 C     13   5   4     7.137420332305    86.24720671   278.49818193
 H     14  13   5     1.094493033326   144.10825222   317.04695750
 H     14  13   5     1.092839420958    87.79475871   196.83582598
 H     14  13   5     1.093849166933    94.15619773    87.90195773
 S     14  13   5     1.802989184660    34.53310954   328.17120324

---------------------------
INTERNAL COORDINATES (A.U.)
---------------------------
 C      0   0   0     0.000000000000     0.00000000     0.00000000
 N      1   0   0     2.572047782411     0.00000000     0.00000000
 C      2   1   0     2.566680825712   121.95243626     0.00000000
 C      3   2   1     2.635972881098   120.02620694     0.10655554
 C      4   3   2     2.633203009226   119.34983770   359.90435571
 C      5   4   3     2.657141087893   120.47178172     0.08537773
 N      6   5   4     2.722242816095   120.30882193   180.03842131
 O      7   6   5     2.358334302820   121.13704526   179.93147861
 O      7   6   5     2.602008099442   120.36156660   359.90709941
 F      1   2   3     2.551130280794   118.67037638   179.91115691
 H      3   2   1     2.043748205657   119.86701156   179.98746005
 H      4   3   2     2.045819467592   120.19197482   179.89186186
 H      5   4   3     2.048090902982   118.91636700   180.02085854
 C     13   5   4    13.487769730738    86.24720671   278.49818193
 H     14  13   5     2.068292088472   144.10825222   317.04695750
 H     14  13   5     2.065167213964    87.79475871   196.83582598
 H     14  13   5     2.067075357321    94.15619773    87.90195773
 S     14  13   5     3.407155781429    34.53310954   328.17120324

---------------------
BASIS SET INFORMATION
---------------------
There are 6 groups of distinct atoms

 Group   1 Type C   : 12s6p1d contracted to 5s4p1d pattern {63111/3111/1}
 Group   2 Type N   : 12s6p1d contracted to 5s4p1d pattern {63111/3111/1}
 Group   3 Type O   : 12s6p1d contracted to 5s4p1d pattern {63111/3111/1}
 Group   4 Type F   : 12s6p1d contracted to 5s4p1d pattern {63111/3111/1}
 Group   5 Type H   : 6s1p contracted to 4s1p pattern {3111/1}
 Group   6 Type S   : 14s10p1d contracted to 7s6p1d pattern {6311111/421111/1}

Atom   0C    basis set group =>   1
Atom   1N    basis set group =>   2
Atom   2C    basis set group =>   1
Atom   3C    basis set group =>   1
Atom   4C    basis set group =>   1
Atom   5C    basis set group =>   1
Atom   6N    basis set group =>   2
Atom   7O    basis set group =>   3
Atom   8O    basis set group =>   3
Atom   9F    basis set group =>   4
Atom  10H    basis set group =>   5
Atom  11H    basis set group =>   5
Atom  12H    basis set group =>   5
Atom  13C    basis set group =>   1
Atom  14H    basis set group =>   5
Atom  15H    basis set group =>   5
Atom  16H    basis set group =>   5
Atom  17S    basis set group =>   6
---------------------------------
AUXILIARY/J BASIS SET INFORMATION
---------------------------------
There are 6 groups of distinct atoms

 Group   1 Type C   : 12s5p4d2f1g contracted to 6s4p3d1f1g pattern {711111/2111/211/2/1}
 Group   2 Type N   : 12s5p4d2f1g contracted to 6s4p3d1f1g pattern {711111/2111/211/2/1}
 Group   3 Type O   : 12s5p4d2f1g contracted to 6s4p3d1f1g pattern {711111/2111/211/2/1}
 Group   4 Type F   : 12s5p4d2f1g contracted to 6s4p3d1f1g pattern {711111/2111/211/2/1}
 Group   5 Type H   : 5s2p1d contracted to 3s1p1d pattern {311/2/1}
 Group   6 Type S   : 14s5p5d2f1g contracted to 8s4p3d1f1g pattern {71111111/2111/311/2/1}

Atom   0C    basis set group =>   1
Atom   1N    basis set group =>   2
Atom   2C    basis set group =>   1
Atom   3C    basis set group =>   1
Atom   4C    basis set group =>   1
Atom   5C    basis set group =>   1
Atom   6N    basis set group =>   2
Atom   7O    basis set group =>   3
Atom   8O    basis set group =>   3
Atom   9F    basis set group =>   4
Atom  10H    basis set group =>   5
Atom  11H    basis set group =>   5
Atom  12H    basis set group =>   5
Atom  13C    basis set group =>   1
Atom  14H    basis set group =>   5
Atom  15H    basis set group =>   5
Atom  16H    basis set group =>   5
Atom  17S    basis set group =>   6


           ************************************************************
           *        Program running with 24 parallel MPI-processes    *
           *              working on a common directory               *
           ************************************************************
------------------------------------------------------------------------------
                           ORCA GTO INTEGRAL CALCULATION
                           -- RI-GTO INTEGRALS CHOSEN --
------------------------------------------------------------------------------
------------------------------------------------------------------------------
                   ___                                                        
                  /   \      - P O W E R E D   B Y -                         
                 /     \                                                     
                 |  |  |   _    _      __       _____    __    __             
                 |  |  |  | |  | |    /  \     |  _  \  |  |  /  |          
                  \  \/   | |  | |   /    \    | | | |  |  | /  /          
                 / \  \   | |__| |  /  /\  \   | |_| |  |  |/  /          
                |  |  |   |  __  | /  /__\  \  |    /   |      \           
                |  |  |   | |  | | |   __   |  |    \   |  |\   \          
                \     /   | |  | | |  |  |  |  | |\  \  |  | \   \       
                 \___/    |_|  |_| |__|  |__|  |_| \__\ |__|  \__/        
                                                                              
                      - O R C A' S   B I G   F R I E N D -                    
                                      &                                       
                       - I N T E G R A L  F E E D E R -                       
                                                                              
 v1 FN, 2020, v2 2021                                                         
------------------------------------------------------------------------------


Reading SHARK input file structure_opt.SHARKINP.tmp ... ok
----------------------
SHARK INTEGRAL PACKAGE
----------------------

Number of atoms                             ...     18
Number of basis functions                   ...    314
Number of shells                            ...    154
Maximum angular momentum                    ...      2
Integral batch strategy                     ... SHARK/LIBINT Hybrid
RI-J (if used) integral strategy            ... SPLIT-RIJ (Revised 2003 algorithm where possible)
Printlevel                                  ...      1
Contraction scheme used                     ... SEGMENTED contraction
Coulomb Range Separation                    ... NOT USED
Exchange Range Separation                   ... Long Range
   Mu parameter                             ...  0.300000
   Scaling (regular/separated)              ...  0.157706  0.842294
Finite Nucleus Model                        ... NOT USED
Auxiliary Coulomb fitting basis             ... AVAILABLE
   # of basis functions in Aux-J            ...    656
   # of shells in Aux-J                     ...    212
   Maximum angular momentum in Aux-J        ...      4
Auxiliary J/K fitting basis                 ... NOT available
Auxiliary Correlation fitting basis         ... NOT available
Auxiliary 'external' fitting basis          ... NOT available
Integral threshold                          ...     2.500000e-11
Primitive cut-off                           ...     2.500000e-12
Primitive pair pre-selection threshold      ...     2.500000e-12

Calculating pre-screening integrals         ... done (  0.0 sec) Dimension = 154
Organizing shell pair data                  ... done (  0.1 sec)
Shell pair information
Total number of shell pairs                 ...     11935
Shell pairs after pre-screening             ...      9241
Total number of primitive shell pairs       ...     38500
Primitive shell pairs kept                  ...     21005
          la=0 lb=0:   2853 shell pairs
          la=1 lb=0:   3796 shell pairs
          la=1 lb=1:   1305 shell pairs
          la=2 lb=0:    734 shell pairs
          la=2 lb=1:    501 shell pairs
          la=2 lb=2:     52 shell pairs

Calculating one electron integrals          ... done (  0.0 sec)
Calculating RI/J V-Matrix + Cholesky decomp.... done (  0.1 sec)
Calculating Nuclear repulsion               ... done (  0.0 sec) ENN=    692.334012490288 Eh

SHARK setup successfully completed in   0.4 seconds

Maximum memory used throughout the entire GTOINT-calculation: 17.9 MB


           ************************************************************
           *        Program running with 24 parallel MPI-processes    *
           *              working on a common directory               *
           ************************************************************
-------------------------------------------------------------------------------
                                 ORCA SCF
-------------------------------------------------------------------------------

------------
SCF SETTINGS
------------
Hamiltonian:
 Density Functional     Method          .... DFT(GTOs)
 Exchange Functional    Exchange        .... WB97X
 Correlation Functional Correlation     .... WB97X
 Gradients option       PostSCFGGA      .... off
 Hybrid DFT is turned on
   Fraction HF Exchange ScalHFX         ....  0.157706
   Scaling of DF-GGA-X  ScalDFX         ....  0.000000
   Scaling of DF-GGA-C  ScalDFC         ....  1.000000
   Scaling of DF-LDA-C  ScalLDAC        ....  1.000000
   Perturbative correction              ....  0.000000
   Density functional embedding theory  .... OFF
 Long-range corrected/Screened/Range-Separated Hybrid DFT is turned on
   Amount of maximum screened exact exchange              ....  0.842294
   Range separation parameter mu (erf(mu*r12)/r12)        ....  0.300000
 RI-approximation to the Coulomb term is turned on
   Number of AuxJ basis functions       .... 656
   RIJ-COSX (HFX calculated with COS-X)).... on


General Settings:
 Integral files         IntName         .... structure_opt
 Hartree-Fock type      HFTyp           .... RHF
 Total Charge           Charge          ....   -1
 Multiplicity           Mult            ....    1
 Number of Electrons    NEL             ....   98
 Basis Dimension        Dim             ....  314
 Nuclear Repulsion      ENuc            ....    692.3340124903 Eh

Convergence Acceleration:
 DIIS                   CNVDIIS         .... on
   Start iteration      DIISMaxIt       ....    12
   Startup error        DIISStart       ....  0.200000
   # of expansion vecs  DIISMaxEq       ....     5
   Bias factor          DIISBfac        ....   1.050
   Max. coefficient     DIISMaxC        ....  10.000
 Trust-Rad. Augm. Hess. CNVTRAH         .... auto
   Auto Start mean grad. ratio tolernc. ....  1.125000
   Auto Start start iteration           ....    20
   Auto Start num. interpolation iter.  ....    10
   Max. Number of Micro iterations      ....    16
   Max. Number of Macro iterations      .... Maxiter - #DIIS iter
   Number of Davidson start vectors     ....     2
   Converg. threshold I  (grad. norm)   ....   1.000e-05
   Converg. threshold II (energy diff.) ....   1.000e-08
   Grad. Scal. Fac. for Micro threshold ....   0.100
   Minimum threshold for Micro iter.    ....   0.010
   NR start threshold (gradient norm)   ....   0.001
   Initial trust radius                 ....   0.400
   Minimum AH scaling param. (alpha)    ....   1.000
   Maximum AH scaling param. (alpha)    .... 1000.000
   Orbital update algorithm             .... Taylor
   White noise on init. David. guess    .... on
   Maximum white noise                  ....   0.010
   Quad. conv. algorithm                .... NR
 SOSCF                  CNVSOSCF        .... on
   Start iteration      SOSCFMaxIt      ....   150
   Startup grad/error   SOSCFStart      ....  0.003300
 Level Shifting         CNVShift        .... on
   Level shift para.    LevelShift      ....    0.2500
   Turn off err/grad.   ShiftErr        ....    0.0010
 Zerner damping         CNVZerner       .... off
 Static damping         CNVDamp         .... on
   Fraction old density DampFac         ....    0.7000
   Max. Damping (<1)    DampMax         ....    0.9800
   Min. Damping (>=0)   DampMin         ....    0.0000
   Turn off err/grad.   DampErr         ....    0.1000
 Fernandez-Rico         CNVRico         .... off

SCF Procedure:
 Maximum # iterations   MaxIter         ....   125
 SCF integral mode      SCFMode         .... Direct
   Integral package                     .... SHARK and LIBINT hybrid scheme
 Reset frequency        DirectResetFreq ....    20
 Integral Threshold     Thresh          ....  2.500e-11 Eh
 Primitive CutOff       TCut            ....  2.500e-12 Eh

Convergence Tolerance:
 Convergence Check Mode ConvCheckMode   .... Total+1el-Energy
 Convergence forced     ConvForced      .... 0
 Energy Change          TolE            ....  1.000e-08 Eh
 1-El. energy change                    ....  1.000e-05 Eh
 Orbital Gradient       TolG            ....  1.000e-05
 Orbital Rotation angle TolX            ....  1.000e-05
 DIIS Error             TolErr          ....  5.000e-07


Diagonalization of the overlap matrix:
Smallest eigenvalue                        ... 4.401e-06
Time for diagonalization                   ...    0.023 sec
Threshold for overlap eigenvalues          ... 1.000e-08
Number of eigenvalues below threshold      ... 0
Time for construction of square roots      ...    0.151 sec
Total time needed                          ...    0.175 sec

Time for model grid setup =    0.644 sec

------------------------------
INITIAL GUESS: MODEL POTENTIAL
------------------------------
Loading Hartree-Fock densities                     ... done
Calculating cut-offs                               ... done
Initializing the effective Hamiltonian             ... done
Setting up the integral package (SHARK)            ... done
Starting the Coulomb interaction                   ... done (   0.1 sec)
Reading the grid                                   ... done
Mapping shells                                     ... done
Starting the XC term evaluation                    ... done (   0.1 sec)
  promolecular density results
     # of electrons  =     96.995745307
     EX              =    -96.552392781
     EC              =     -3.327212362
     EX+EC           =    -99.879605143
Transforming the Hamiltonian                       ... done (   0.0 sec)
Diagonalizing the Hamiltonian                      ... done (   0.0 sec)
Back transforming the eigenvectors                 ... done (   0.0 sec)
Now organizing SCF variables                       ... done
                      ------------------
                      INITIAL GUESS DONE (   0.8 sec)
                      ------------------
-------------------
DFT GRID GENERATION
-------------------

General Integration Accuracy     IntAcc      ... 4.388
Radial Grid Type                 RadialGrid  ... OptM3 with GC (2021)
Angular Grid (max. ang.)         AngularGrid ... 4 (Lebedev-302)
Angular grid pruning method      GridPruning ... 4 (adaptive)
Weight generation scheme         WeightScheme... Becke
Basis function cutoff            BFCut       ... 1.0000e-11
Integration weight cutoff        WCut        ... 1.0000e-14
Angular grids for H and He will be reduced by one unit
Partially contracted basis set               ... off
Rotationally invariant grid construction     ... off

Total number of grid points                  ...    98118
Total number of batches                      ...     1543
Average number of points per batch           ...       63
Average number of grid points per atom       ...     5451
Time for grid setup =    0.881 sec

--------------------
COSX GRID GENERATION
--------------------

GRIDX 1
-------
General Integration Accuracy     IntAcc      ... 3.816
Radial Grid Type                 RadialGrid  ... OptM3 with GC (2021)
Angular Grid (max. ang.)         AngularGrid ... 1 (Lebedev-50)
Angular grid pruning method      GridPruning ... 4 (adaptive)
Weight generation scheme         WeightScheme... Becke
Basis function cutoff            BFCut       ... 1.0000e-11
Integration weight cutoff        WCut        ... 1.0000e-14
Angular grids for H and He will be reduced by one unit
Partially contracted basis set               ... on
Rotationally invariant grid construction     ... off

Total number of grid points                  ...    12260
Total number of batches                      ...      202
Average number of points per batch           ...       60
Average number of grid points per atom       ...      681
UseSFitting                                  ... on

GRIDX 2
-------
General Integration Accuracy     IntAcc      ... 4.020
Radial Grid Type                 RadialGrid  ... OptM3 with GC (2021)
Angular Grid (max. ang.)         AngularGrid ... 2 (Lebedev-110)
Angular grid pruning method      GridPruning ... 4 (adaptive)
Weight generation scheme         WeightScheme... Becke
Basis function cutoff            BFCut       ... 1.0000e-11
Integration weight cutoff        WCut        ... 1.0000e-14
Angular grids for H and He will be reduced by one unit
Partially contracted basis set               ... on
Rotationally invariant grid construction     ... off

Total number of grid points                  ...    31029
Total number of batches                      ...      492
Average number of points per batch           ...       63
Average number of grid points per atom       ...     1724
UseSFitting                                  ... on

GRIDX 3
-------
General Integration Accuracy     IntAcc      ... 4.338
Radial Grid Type                 RadialGrid  ... OptM3 with GC (2021)
Angular Grid (max. ang.)         AngularGrid ... 3 (Lebedev-194)
Angular grid pruning method      GridPruning ... 4 (adaptive)
Weight generation scheme         WeightScheme... Becke
Basis function cutoff            BFCut       ... 1.0000e-11
Integration weight cutoff        WCut        ... 1.0000e-14
Angular grids for H and He will be reduced by one unit
Partially contracted basis set               ... on
Rotationally invariant grid construction     ... off

Total number of grid points                  ...    68918
Total number of batches                      ...     1086
Average number of points per batch           ...       63
Average number of grid points per atom       ...     3829
UseSFitting                                  ... on

Time for X-Grid setup             =    1.277 sec


--------------------
CPCM SOLVATION MODEL
--------------------
CPCM parameters:
  Epsilon                                         ...      78.3550
  Refrac                                          ...       1.3328
  Rsolv                                           ...       1.3000
  Surface type                                    ... GAUSSIAN VDW
  Epsilon function type                           ...         CPCM
Solvent:                                     ... WATER
SMD-CDS solvent descriptors:
  Soln                                       ...    1.3328
  Soln25                                     ...    1.3323
  Sola                                       ...    0.0000
  Solb                                       ...    0.0000
  Solg                                       ...    0.0000
  Solc                                       ...    0.0000
  Solh                                       ...    0.0000
Radii:
 Radius for C  used is    3.4960 Bohr (=   1.8500 Ang.)
 Radius for N  used is    3.5716 Bohr (=   1.8900 Ang.)
 Radius for O  used is    2.8724 Bohr (=   1.5200 Ang.)
 Radius for F  used is    3.2692 Bohr (=   1.7300 Ang.)
 Radius for H  used is    2.2677 Bohr (=   1.2000 Ang.)
 Radius for S  used is    4.7054 Bohr (=   2.4900 Ang.)
Calculating surface                               ...        done! (  0.0s)
GEPOL surface points                              ...         1156
GEPOL Volume                                      ...    1372.5485
GEPOL Surface-area                                ...     850.5805
Calculating surface distance matrix               ...        done! (  0.0s)
Performing Cholesky decomposition & store         ...        done! (  0.1s)
Overall time for CPCM initialization              ...                 0.1s
--------------
SCF ITERATIONS
--------------
ITER       Energy         Delta-E        Max-DP      RMS-DP      [F,P]     Damp
               ***  Starting incremental Fock matrix formation  ***
  0   -989.8663665238   0.000000000000 0.33983112  0.00321379  0.2373531 0.7000
  1   -990.0285559580  -0.162189434207 0.27568327  0.00269349  0.1164946 0.7000
                               ***Turning on DIIS***
  2   -990.1009901479  -0.072434189888 1.61337021  0.00971650  0.0610286 0.0000
  3   -990.2250515210  -0.124061373068 0.74053340  0.00395102  0.0549942 0.0000
  4   -990.2441987537  -0.019147232689 0.26652509  0.00142804  0.0124793 0.0000
  5   -990.2453763845  -0.001177630862 0.13217413  0.00074100  0.0061570 0.0000
                      *** Initiating the SOSCF procedure ***
                           *** Shutting down DIIS ***
                      *** Re-Reading the Fockian *** 
                      *** Removing any level shift *** 
ITER      Energy       Delta-E        Grad      Rot      Max-DP    RMS-DP
  6   -990.24560945  -0.0002330636  0.001495  0.001495  0.039878  0.000252
               *** Restarting incremental Fock matrix formation ***
  7   -990.24568991  -0.0000804643  0.000976  0.002397  0.012148  0.000178
  8   -990.24572887  -0.0000389584  0.000337  0.002513  0.013970  0.000169
  9   -990.24573484  -0.0000059667  0.000680  0.000712  0.006437  0.000084
 10   -990.24574170  -0.0000068605  0.000112  0.000187  0.002956  0.000026
 11   -990.24574177  -0.0000000755  0.000092  0.000126  0.004609  0.000025
 12   -990.24574213  -0.0000003613  0.000015  0.000039  0.007428  0.000039
 13   -990.24574214  -0.0000000007  0.000006  0.000032  0.006793  0.000049
 14   -990.24574214  -0.0000000040  0.000005  0.000012  0.004619  0.000027
                  ***Gradient check signals convergence***
              ***Rediagonalizing the Fockian in SOSCF/NRSCF***

               *****************************************************
               *                     SUCCESS                       *
               *           SCF CONVERGED AFTER  15 CYCLES          *
               *****************************************************

Old exchange energy                            =    -28.432501981 Eh
New exchange energy                            =    -28.432497782 Eh
Exchange energy change after final integration =      0.000004199 Eh
Total energy after final integration           =   -990.245737942 Eh
Final COS-X integration done in                =     3.684 sec

SMD CDS free energy correction energy :                 5.87287     Kcal/mol
Total Energy after SMD CDS correction =              -990.236378921 Eh

----------------
TOTAL SCF ENERGY
----------------

Total Energy       :         -990.23637892 Eh          -26945.70176 eV

Components:
Nuclear Repulsion  :          692.33401249 Eh           18839.36625 eV
Electronic Energy  :        -1682.57039141 Eh          -45785.06802 eV
One Electron Energy:        -2744.65127548 Eh          -74685.75816 eV
Two Electron Energy:         1062.08088407 Eh           28900.69014 eV
Max COSX asymmetry :            0.00000153 Eh               0.00004 eV
CPCM Dielectric    :           -0.12420512 Eh              -3.37979 eV
SMD CDS (Gcds)     :            0.00935902 Eh               0.25467 eV

Virial components:
Potential Energy   :        -1977.46662289 Eh          -53809.60244 eV
Kinetic Energy     :          987.23024397 Eh           26863.90067 eV
Virial Ratio       :            2.00304502


DFT components:
N(Alpha)           :       48.999934937429 electrons
N(Beta)            :       48.999934937429 electrons
N(Total)           :       97.999869874857 electrons
E(XC)              :      -73.337907918598 Eh       
DFET-embed. en.    :        0.000000000000 Eh       
CPCM Solvation Model Properties:
Surface-charge          :            0.94765913
Charge-correction       :           -0.00565726 Eh              -0.15394 eV
Free-energy (cav+disp)  :            0.00935902 Eh               0.25467 eV

---------------
SCF CONVERGENCE
---------------

  Last Energy change         ...   -1.1350e-09  Tolerance :   1.0000e-08
  Last MAX-Density change    ...    2.6645e-15  Tolerance :   1.0000e-07
  Last RMS-Density change    ...    3.7047e-17  Tolerance :   5.0000e-09
  Last Orbital Gradient      ...    1.9323e-06  Tolerance :   1.0000e-05
  Last Orbital Rotation      ...    1.7620e-06  Tolerance :   1.0000e-05

             **** THE GBW FILE WAS UPDATED (structure_opt.gbw) ****
             **** DENSITY structure_opt.scfp WAS UPDATED ****
             **** ENERGY FILE WAS UPDATED (structure_opt.en.tmp) ****
             **** THE GBW FILE WAS UPDATED (structure_opt.gbw) ****
             **** DENSITY structure_opt.scfp WAS UPDATED ****
----------------
ORBITAL ENERGIES
----------------

  NO   OCC          E(Eh)            E(eV) 
   0   2.0000     -88.720572     -2414.2095 
   1   2.0000     -24.793262      -674.6589 
   2   2.0000     -19.275522      -524.5136 
   3   2.0000     -19.243849      -523.6517 
   4   2.0000     -14.669747      -399.1841 
   5   2.0000     -14.435432      -392.8081 
   6   2.0000     -10.437581      -284.0210 
   7   2.0000     -10.364013      -282.0191 
   8   2.0000     -10.338055      -281.3128 
   9   2.0000     -10.321020      -280.8492 
  10   2.0000     -10.290339      -280.0144 
  11   2.0000     -10.236295      -278.5437 
  12   2.0000      -7.916437      -215.4172 
  13   2.0000      -5.879583      -159.9916 
  14   2.0000      -5.872201      -159.7907 
  15   2.0000      -5.872183      -159.7902 
  16   2.0000      -1.396297       -37.9952 
  17   2.0000      -1.348144       -36.6849 
  18   2.0000      -1.151395       -31.3310 
  19   2.0000      -1.109129       -30.1809 
  20   2.0000      -1.008280       -27.4367 
  21   2.0000      -0.943241       -25.6669 
  22   2.0000      -0.873875       -23.7793 
  23   2.0000      -0.836482       -22.7618 
  24   2.0000      -0.796520       -21.6744 
  25   2.0000      -0.769068       -20.9274 
  26   2.0000      -0.705903       -19.2086 
  27   2.0000      -0.686460       -18.6795 
  28   2.0000      -0.669259       -18.2115 
  29   2.0000      -0.665437       -18.1075 
  30   2.0000      -0.661636       -18.0040 
  31   2.0000      -0.633171       -17.2295 
  32   2.0000      -0.620291       -16.8790 
  33   2.0000      -0.615086       -16.7374 
  34   2.0000      -0.563706       -15.3392 
  35   2.0000      -0.536937       -14.6108 
  36   2.0000      -0.527811       -14.3625 
  37   2.0000      -0.527772       -14.3614 
  38   2.0000      -0.494779       -13.4636 
  39   2.0000      -0.494268       -13.4497 
  40   2.0000      -0.456021       -12.4090 
  41   2.0000      -0.432404       -11.7663 
  42   2.0000      -0.421565       -11.4714 
  43   2.0000      -0.416304       -11.3282 
  44   2.0000      -0.407917       -11.1000 
  45   2.0000      -0.391108       -10.6426 
  46   2.0000      -0.384764       -10.4699 
  47   2.0000      -0.259270        -7.0551 
  48   2.0000      -0.259218        -7.0537 
  49   0.0000      -0.064690        -1.7603 
  50   0.0000       0.022731         0.6185 
  51   0.0000       0.049740         1.3535 
  52   0.0000       0.055511         1.5105 
  53   0.0000       0.062598         1.7034 
  54   0.0000       0.068062         1.8521 
  55   0.0000       0.072953         1.9851 
  56   0.0000       0.086778         2.3613 
  57   0.0000       0.092800         2.5252 
  58   0.0000       0.095564         2.6004 
  59   0.0000       0.099371         2.7040 
  60   0.0000       0.113330         3.0839 
  61   0.0000       0.121241         3.2991 
  62   0.0000       0.126884         3.4527 
  63   0.0000       0.129635         3.5276 
  64   0.0000       0.133810         3.6411 
  65   0.0000       0.142988         3.8909 
  66   0.0000       0.157306         4.2805 
  67   0.0000       0.162748         4.4286 
  68   0.0000       0.166273         4.5245 
  69   0.0000       0.167338         4.5535 
  70   0.0000       0.168543         4.5863 
  71   0.0000       0.176308         4.7976 
  72   0.0000       0.179774         4.8919 
  73   0.0000       0.180607         4.9146 
  74   0.0000       0.187391         5.0992 
  75   0.0000       0.189757         5.1635 
  76   0.0000       0.195758         5.3269 
  77   0.0000       0.197421         5.3721 
  78   0.0000       0.201150         5.4736 
  79   0.0000       0.209474         5.7001 
  80   0.0000       0.220020         5.9871 
  81   0.0000       0.222166         6.0454 
  82   0.0000       0.223883         6.0922 
  83   0.0000       0.229371         6.2415 
  84   0.0000       0.235675         6.4131 
  85   0.0000       0.237651         6.4668 
  86   0.0000       0.247276         6.7287 
  87   0.0000       0.256448         6.9783 
  88   0.0000       0.270040         7.3482 
  89   0.0000       0.271950         7.4001 
  90   0.0000       0.275192         7.4883 
  91   0.0000       0.279194         7.5973 
  92   0.0000       0.279572         7.6075 
  93   0.0000       0.282554         7.6887 
  94   0.0000       0.284576         7.7437 
  95   0.0000       0.297667         8.0999 
  96   0.0000       0.300680         8.1819 
  97   0.0000       0.314999         8.5716 
  98   0.0000       0.318585         8.6691 
  99   0.0000       0.330259         8.9868 
 100   0.0000       0.337178         9.1751 
 101   0.0000       0.339671         9.2429 
 102   0.0000       0.348903         9.4941 
 103   0.0000       0.355205         9.6656 
 104   0.0000       0.361742         9.8435 
 105   0.0000       0.368515        10.0278 
 106   0.0000       0.373506        10.1636 
 107   0.0000       0.377978        10.2853 
 108   0.0000       0.395819        10.7708 
 109   0.0000       0.404846        11.0164 
 110   0.0000       0.410532        11.1712 
 111   0.0000       0.418956        11.4004 
 112   0.0000       0.427250        11.6261 
 113   0.0000       0.433972        11.8090 
 114   0.0000       0.442509        12.0413 
 115   0.0000       0.454801        12.3758 
 116   0.0000       0.467907        12.7324 
 117   0.0000       0.470350        12.7989 
 118   0.0000       0.471268        12.8239 
 119   0.0000       0.491721        13.3804 
 120   0.0000       0.498597        13.5675 
 121   0.0000       0.502494        13.6736 
 122   0.0000       0.523309        14.2400 
 123   0.0000       0.529302        14.4031 
 124   0.0000       0.530102        14.4248 
 125   0.0000       0.551257        15.0005 
 126   0.0000       0.586918        15.9708 
 127   0.0000       0.613184        16.6856 
 128   0.0000       0.619325        16.8527 
 129   0.0000       0.637798        17.3554 
 130   0.0000       0.646372        17.5887 
 131   0.0000       0.654636        17.8135 
 132   0.0000       0.662358        18.0237 
 133   0.0000       0.662772        18.0349 
 134   0.0000       0.675338        18.3769 
 135   0.0000       0.702826        19.1249 
 136   0.0000       0.709033        19.2938 
 137   0.0000       0.727143        19.7866 
 138   0.0000       0.745962        20.2987 
 139   0.0000       0.770613        20.9694 
 140   0.0000       0.771325        20.9888 
 141   0.0000       0.778575        21.1861 
 142   0.0000       0.811995        22.0955 
 143   0.0000       0.830903        22.6100 
 144   0.0000       0.844077        22.9685 
 145   0.0000       0.852710        23.2034 
 146   0.0000       0.859378        23.3849 
 147   0.0000       0.876294        23.8452 
 148   0.0000       0.904685        24.6177 
 149   0.0000       0.916965        24.9519 
 150   0.0000       0.921233        25.0680 
 151   0.0000       0.939016        25.5519 
 152   0.0000       0.955692        26.0057 
 153   0.0000       0.957788        26.0627 
 154   0.0000       0.961826        26.1726 
 155   0.0000       0.975883        26.5551 
 156   0.0000       0.981237        26.7008 
 157   0.0000       0.988417        26.8962 
 158   0.0000       1.003803        27.3149 
 159   0.0000       1.004721        27.3398 
 160   0.0000       1.006867        27.3983 
 161   0.0000       1.037037        28.2192 
 162   0.0000       1.045760        28.4566 
 163   0.0000       1.063784        28.9470 
 164   0.0000       1.074592        29.2411 
 165   0.0000       1.080532        29.4028 
 166   0.0000       1.084175        29.5019 
 167   0.0000       1.141269        31.0555 
 168   0.0000       1.144746        31.1501 
 169   0.0000       1.156078        31.4585 
 170   0.0000       1.173657        31.9368 
 171   0.0000       1.197511        32.5859 
 172   0.0000       1.199952        32.6524 
 173   0.0000       1.215068        33.0637 
 174   0.0000       1.250979        34.0409 
 175   0.0000       1.262580        34.3566 
 176   0.0000       1.277276        34.7564 
 177   0.0000       1.279969        34.8297 
 178   0.0000       1.281030        34.8586 
 179   0.0000       1.294948        35.2373 
 180   0.0000       1.299762        35.3683 
 181   0.0000       1.357784        36.9472 
 182   0.0000       1.397771        38.0353 
 183   0.0000       1.407282        38.2941 
 184   0.0000       1.472517        40.0692 
 185   0.0000       1.520386        41.3718 
 186   0.0000       1.544553        42.0294 
 187   0.0000       1.588147        43.2157 
 188   0.0000       1.589296        43.2469 
 189   0.0000       1.591180        43.2982 
 190   0.0000       1.618192        44.0333 
 191   0.0000       1.633434        44.4480 
 192   0.0000       1.655831        45.0574 
 193   0.0000       1.657153        45.0934 
 194   0.0000       1.694459        46.1086 
 195   0.0000       1.695467        46.1360 
 196   0.0000       1.706094        46.4252 
 197   0.0000       1.717484        46.7351 
 198   0.0000       1.749789        47.6142 
 199   0.0000       1.761572        47.9348 
 200   0.0000       1.787069        48.6286 
 201   0.0000       1.810539        49.2673 
 202   0.0000       1.811685        49.2985 
 203   0.0000       1.817859        49.4665 
 204   0.0000       1.842779        50.1446 
 205   0.0000       1.858669        50.5770 
 206   0.0000       1.870089        50.8877 
 207   0.0000       1.911932        52.0263 
 208   0.0000       1.934805        52.6487 
 209   0.0000       1.947872        53.0043 
 210   0.0000       1.972576        53.6765 
 211   0.0000       1.975770        53.7634 
 212   0.0000       1.991707        54.1971 
 213   0.0000       2.012677        54.7677 
 214   0.0000       2.032602        55.3099 
 215   0.0000       2.045876        55.6711 
 216   0.0000       2.058448        56.0132 
 217   0.0000       2.112435        57.4823 
 218   0.0000       2.141779        58.2808 
 219   0.0000       2.149069        58.4792 
 220   0.0000       2.168489        59.0076 
 221   0.0000       2.174640        59.1750 
 222   0.0000       2.178148        59.2704 
 223   0.0000       2.206813        60.0504 
 224   0.0000       2.293070        62.3976 
 225   0.0000       2.324237        63.2457 
 226   0.0000       2.332367        63.4669 
 227   0.0000       2.333058        63.4857 
 228   0.0000       2.400925        65.3325 
 229   0.0000       2.431361        66.1607 
 230   0.0000       2.495681        67.9109 
 231   0.0000       2.564213        69.7758 
 232   0.0000       2.592888        70.5561 
 233   0.0000       2.596899        70.6652 
 234   0.0000       2.605699        70.9047 
 235   0.0000       2.627976        71.5109 
 236   0.0000       2.660841        72.4052 
 237   0.0000       2.662790        72.4582 
 238   0.0000       2.672650        72.7265 
 239   0.0000       2.673970        72.7624 
 240   0.0000       2.694104        73.3103 
 241   0.0000       2.785251        75.7905 
 242   0.0000       2.789168        75.8971 
 243   0.0000       2.830061        77.0099 
 244   0.0000       2.845293        77.4244 
 245   0.0000       2.860240        77.8311 
 246   0.0000       2.872028        78.1518 
 247   0.0000       2.883829        78.4730 
 248   0.0000       2.899360        78.8956 
 249   0.0000       2.902351        78.9770 
 250   0.0000       2.933938        79.8365 
 251   0.0000       2.937742        79.9400 
 252   0.0000       2.960831        80.5683 
 253   0.0000       2.978064        81.0372 
 254   0.0000       2.987206        81.2860 
 255   0.0000       3.002845        81.7116 
 256   0.0000       3.013639        82.0053 
 257   0.0000       3.098577        84.3166 
 258   0.0000       3.153893        85.8218 
 259   0.0000       3.189419        86.7885 
 260   0.0000       3.269438        88.9659 
 261   0.0000       3.308047        90.0165 
 262   0.0000       3.309149        90.0465 
 263   0.0000       3.345940        91.0476 
 264   0.0000       3.369738        91.6952 
 265   0.0000       3.454636        94.0054 
 266   0.0000       3.500169        95.2444 
 267   0.0000       3.561337        96.9089 
 268   0.0000       3.596452        97.8644 
 269   0.0000       3.681160       100.1695 
 270   0.0000       3.704334       100.8001 
 271   0.0000       3.754841       102.1744 
 272   0.0000       3.853784       104.8668 
 273   0.0000       3.887530       105.7851 
 274   0.0000       3.888849       105.8210 
 275   0.0000       3.891107       105.8824 
 276   0.0000       3.904521       106.2474 
 277   0.0000       3.924997       106.8046 
 278   0.0000       4.013165       109.2038 
 279   0.0000       4.060148       110.4822 
 280   0.0000       4.120298       112.1190 
 281   0.0000       4.145043       112.7924 
 282   0.0000       4.169185       113.4493 
 283   0.0000       4.405759       119.8868 
 284   0.0000       4.480934       121.9324 
 285   0.0000       4.504263       122.5672 
 286   0.0000       4.761360       129.5632 
 287   0.0000       4.943545       134.5207 
 288   0.0000       5.072437       138.0280 
 289   0.0000       5.100018       138.7785 
 290   0.0000       5.191714       141.2737 
 291   0.0000       5.220759       142.0641 
 292   0.0000       5.314857       144.6246 
 293   0.0000       5.698759       155.0711 
 294   0.0000       6.131405       166.8440 
 295   0.0000       6.421478       174.7373 
 296   0.0000       6.541415       178.0009 
 297   0.0000       6.840572       186.1414 
 298   0.0000       7.983144       217.2324 
 299   0.0000      17.548840       477.5282 
 300   0.0000      17.551956       477.6130 
 301   0.0000      17.648820       480.2488 
 302   0.0000      23.652001       643.6037 
 303   0.0000      23.891331       650.1162 
 304   0.0000      23.984354       652.6474 
 305   0.0000      24.030934       653.9149 
 306   0.0000      24.071862       655.0287 
 307   0.0000      24.181926       658.0236 
 308   0.0000      35.375810       962.6247 
 309   0.0000      35.657545       970.2911 
 310   0.0000      49.901673      1357.8936 
 311   0.0000      49.964232      1359.5959 
 312   0.0000      66.792913      1817.5276 
 313   0.0000     188.972865      5142.2131 

--------------------
FRAGMENT INFORMATION
--------------------
Fragment  1:    0   1   2   3   4   5 
Fragment  2:    6   7   8   9  10  11  12 
Fragment  3:   13  14  15  16 
Fragment  4:   17 


                    ********************************
                    * MULLIKEN POPULATION ANALYSIS *
                    ********************************

-------------------------
MULLIKEN FRAGMENT CHARGES
-------------------------
 Fragment   0 :  -0.452023
 Fragment   1 :   0.453137
 Fragment   2 :  -0.036403
 Fragment   3 :  -0.964711
Sum of fragment charges:   -1.0000000

---------------------------------
MULLIKEN FRAGMENT OVERLAP CHARGES
---------------------------------
                  0          1          2          3    
      0      20.903243   0.524040  -0.000955   0.002740
      1       0.524040  35.017025   0.000527   0.004451
      2      -0.000955   0.000527  11.648667  -0.639059
      3       0.002740   0.004451  -0.639059  17.280645

-----------------------
MULLIKEN ATOMIC CHARGES
-----------------------
   0 C :   -0.059081
   1 N :   -0.194167
   2 C :   -0.300720
   3 C :   -0.280255
   4 C :    0.448107
   5 C :   -0.065908
   6 N :   -0.059635
   7 O :   -0.058540
   8 O :   -0.235346
   9 F :   -0.102370
  10 H :    0.296686
  11 H :    0.282754
  12 H :    0.329589
  13 C :   -0.420597
  14 H :    0.127585
  15 H :    0.127986
  16 H :    0.128622
  17 S :   -0.964711
Sum of atomic charges:   -1.0000000

--------------------------------
MULLIKEN REDUCED ORBITAL CHARGES
--------------------------------
  0 C s       :     3.307101  s :     3.307101
      pz      :     0.671615  p :     2.591544
      px      :     0.976085
      py      :     0.943844
      dz2     :     0.052756  d :     0.160435
      dxz     :     0.048837
      dyz     :     0.028425
      dx2y2   :     0.013771
      dxy     :     0.016646
  1 N s       :     3.614098  s :     3.614098
      pz      :     1.143387  p :     3.549546
      px      :     1.240986
      py      :     1.165174
      dz2     :     0.008166  d :     0.030523
      dxz     :     0.007239
      dyz     :     0.004757
      dx2y2   :     0.005504
      dxy     :     0.004858
  2 C s       :     3.385171  s :     3.385171
      pz      :     0.815366  p :     2.831401
      px      :     1.162840
      py      :     0.853195
      dz2     :     0.023589  d :     0.084148
      dxz     :     0.032192
      dyz     :     0.014800
      dx2y2   :     0.007219
      dxy     :     0.006348
  3 C s       :     3.231832  s :     3.231832
      pz      :     1.156137  p :     2.995266
      px      :     0.872926
      py      :     0.966203
      dz2     :     0.015282  d :     0.053156
      dxz     :     0.017415
      dyz     :     0.005093
      dx2y2   :     0.008223
      dxy     :     0.007143
  4 C s       :     2.516890  s :     2.516890
      pz      :     0.886981  p :     2.977915
      px      :     1.250201
      py      :     0.840732
      dz2     :     0.016551  d :     0.057088
      dxz     :     0.015852
      dyz     :     0.010565
      dx2y2   :     0.007218
      dxy     :     0.006904
  5 C s       :     3.316279  s :     3.316279
      pz      :     1.070102  p :     2.676495
      px      :     0.473876
      py      :     1.132516
      dz2     :     0.013626  d :     0.073134
      dxz     :     0.029773
      dyz     :     0.010337
      dx2y2   :     0.011211
      dxy     :     0.008187
  6 N s       :     3.570383  s :     3.570383
      pz      :     1.061913  p :     3.380266
      px      :     1.217495
      py      :     1.100859
      dz2     :     0.027718  d :     0.108986
      dxz     :     0.039353
      dyz     :     0.023078
      dx2y2   :     0.008553
      dxy     :     0.010285
  7 O s       :     3.781650  s :     3.781650
      pz      :     1.029014  p :     4.258195
      px      :     1.827854
      py      :     1.401327
      dz2     :     0.009709  d :     0.018695
      dxz     :     0.003512
      dyz     :     0.005305
      dx2y2   :     0.000102
      dxy     :     0.000067
  8 O s       :     3.821476  s :     3.821476
      pz      :     1.625009  p :     4.401755
      px      :     1.218140
      py      :     1.558607
      dz2     :     0.001059  d :     0.012115
      dxz     :     0.004900
      dyz     :     0.000879
      dx2y2   :     0.003117
      dxy     :     0.002159
  9 F s       :     3.918337  s :     3.918337
      pz      :     1.389000  p :     5.178702
      px      :     1.916003
      py      :     1.873698
      dz2     :     0.003096  d :     0.005331
      dxz     :     0.000997
      dyz     :     0.001201
      dx2y2   :     0.000027
      dxy     :     0.000009
 10 H s       :     0.679412  s :     0.679412
      pz      :     0.005482  p :     0.023902
      px      :     0.014122
      py      :     0.004298
 11 H s       :     0.692276  s :     0.692276
      pz      :     0.016381  p :     0.024970
      px      :     0.003655
      py      :     0.004934
 12 H s       :     0.644876  s :     0.644876
      pz      :     0.007752  p :     0.025536
      px      :     0.013385
      py      :     0.004398
 13 C s       :     3.279838  s :     3.279838
      pz      :     1.027912  p :     3.088118
      px      :     1.054110
      py      :     1.006095
      dz2     :     0.008493  d :     0.052642
      dxz     :     0.012019
      dyz     :     0.011828
      dx2y2   :     0.015732
      dxy     :     0.004570
 14 H s       :     0.849777  s :     0.849777
      pz      :     0.006774  p :     0.022637
      px      :     0.004745
      py      :     0.011118
 15 H s       :     0.849280  s :     0.849280
      pz      :     0.005455  p :     0.022734
      px      :     0.012557
      py      :     0.004721
 16 H s       :     0.848676  s :     0.848676
      pz      :     0.010358  p :     0.022702
      px      :     0.007684
      py      :     0.004659
 17 S s       :     6.007865  s :     6.007865
      pz      :     3.624830  p :    10.925440
      px      :     3.928068
      py      :     3.372541
      dz2     :     0.002998  d :     0.031407
      dxz     :     0.003004
      dyz     :     0.014269
      dx2y2   :     0.006582
      dxy     :     0.004552


                     *******************************
                     * LOEWDIN POPULATION ANALYSIS *
                     *******************************

------------------------
LOEWDIN FRAGMENT CHARGES
------------------------
 Fragment   0 :   0.052279
 Fragment   1 :  -0.058000
 Fragment   2 :  -0.354603
 Fragment   3 :  -0.639676

----------------------------
LOEWDIN FRAGMENT BOND ORDERS
----------------------------
                  0          1          2          3    
      0      56.968952   6.779465   0.001956   0.010312
      1       6.779465  43.787739   0.000268   0.001583
      2       0.001956   0.000268  15.415916   1.744304
      3       0.010312   0.001583   1.744304  16.639676

----------------------
LOEWDIN ATOMIC CHARGES
----------------------
   0 C :    0.111023
   1 N :   -0.111529
   2 C :    0.076762
   3 C :   -0.035541
   4 C :    0.076132
   5 C :   -0.064569
   6 N :    0.241539
   7 O :   -0.154414
   8 O :   -0.338538
   9 F :   -0.078176
  10 H :    0.086962
  11 H :    0.084542
  12 H :    0.100086
  13 C :   -0.358446
  14 H :    0.001672
  15 H :    0.000933
  16 H :    0.001238
  17 S :   -0.639676

-------------------------------
LOEWDIN REDUCED ORBITAL CHARGES
-------------------------------
  0 C s       :     2.743823  s :     2.743823
      pz      :     0.849450  p :     2.816035
      px      :     1.080536
      py      :     0.886050
      dz2     :     0.112522  d :     0.329119
      dxz     :     0.100696
      dyz     :     0.050380
      dx2y2   :     0.033882
      dxy     :     0.031638
  1 N s       :     3.151221  s :     3.151221
      pz      :     1.301263  p :     3.903469
      px      :     1.417008
      py      :     1.185198
      dz2     :     0.017385  d :     0.056839
      dxz     :     0.015721
      dyz     :     0.007790
      dx2y2   :     0.009546
      dxy     :     0.006398
  2 C s       :     2.786943  s :     2.786943
      pz      :     1.032947  p :     2.954457
      px      :     1.096827
      py      :     0.824683
      dz2     :     0.060311  d :     0.181838
      dxz     :     0.069042
      dyz     :     0.027976
      dx2y2   :     0.014024
      dxy     :     0.010484
  3 C s       :     2.781398  s :     2.781398
      pz      :     1.081470  p :     3.129778
      px      :     1.092418
      py      :     0.955889
      dz2     :     0.034112  d :     0.124365
      dxz     :     0.045075
      dyz     :     0.008020
      dx2y2   :     0.022221
      dxy     :     0.014937
  4 C s       :     2.779317  s :     2.779317
      pz      :     1.065856  p :     3.016247
      px      :     1.108434
      py      :     0.841957
      dz2     :     0.040915  d :     0.128304
      dxz     :     0.039156
      dyz     :     0.021251
      dx2y2   :     0.015052
      dxy     :     0.011930
  5 C s       :     2.757935  s :     2.757935
      pz      :     1.088749  p :     3.126304
      px      :     0.957301
      py      :     1.080254
      dz2     :     0.039907  d :     0.180330
      dxz     :     0.071785
      dyz     :     0.019833
      dx2y2   :     0.031421
      dxy     :     0.017385
  6 N s       :     3.051900  s :     3.051900
      pz      :     1.205968  p :     3.500198
      px      :     1.215138
      py      :     1.079091
      dz2     :     0.060436  d :     0.206363
      dxz     :     0.076189
      dyz     :     0.035699
      dx2y2   :     0.017519
      dxy     :     0.016521
  7 O s       :     3.581158  s :     3.581158
      pz      :     1.283786  p :     4.540948
      px      :     1.838842
      py      :     1.418320
      dz2     :     0.020434  d :     0.032308
      dxz     :     0.005157
      dyz     :     0.006527
      dx2y2   :     0.000119
      dxy     :     0.000071
  8 O s       :     3.667251  s :     3.667251
      pz      :     1.709870  p :     4.650803
      px      :     1.369793
      py      :     1.571140
      dz2     :     0.001545  d :     0.020483
      dxz     :     0.009264
      dyz     :     0.001173
      dx2y2   :     0.005711
      dxy     :     0.002790
  9 F s       :     3.714898  s :     3.714898
      pz      :     1.535248  p :     5.355909
      px      :     1.934377
      py      :     1.886284
      dz2     :     0.004765  d :     0.007369
      dxz     :     0.001184
      dyz     :     0.001375
      dx2y2   :     0.000037
      dxy     :     0.000009
 10 H s       :     0.842643  s :     0.842643
      pz      :     0.016681  p :     0.070395
      px      :     0.042293
      py      :     0.011422
 11 H s       :     0.843015  s :     0.843015
      pz      :     0.047853  p :     0.072443
      px      :     0.011206
      py      :     0.013384
 12 H s       :     0.826694  s :     0.826694
      pz      :     0.023105  p :     0.073220
      px      :     0.038724
      py      :     0.011391
 13 C s       :     2.858632  s :     2.858632
      pz      :     1.132032  p :     3.392947
      px      :     1.120489
      py      :     1.140426
      dz2     :     0.016486  d :     0.106866
      dxz     :     0.023725
      dyz     :     0.025770
      dx2y2   :     0.031952
      dxy     :     0.008933
 14 H s       :     0.926714  s :     0.926714
      pz      :     0.020751  p :     0.071614
      px      :     0.013834
      py      :     0.037029
 15 H s       :     0.927158  s :     0.927158
      pz      :     0.016889  p :     0.071909
      px      :     0.040608
      py      :     0.014413
 16 H s       :     0.927029  s :     0.927029
      pz      :     0.033806  p :     0.071733
      px      :     0.023634
      py      :     0.014292
 17 S s       :     5.611412  s :     5.611412
      pz      :     3.654350  p :    10.991059
      px      :     3.885053
      py      :     3.451656
      dz2     :     0.003355  d :     0.037206
      dxz     :     0.003501
      dyz     :     0.017213
      dx2y2   :     0.007823
      dxy     :     0.005314


                      *****************************
                      * MAYER POPULATION ANALYSIS *
                      *****************************

  NA   - Mulliken gross atomic population
  ZA   - Total nuclear charge
  QA   - Mulliken gross atomic charge
  VA   - Mayer's total valence
  BVA  - Mayer's bonded valence
  FA   - Mayer's free valence

  ATOM       NA         ZA         QA         VA         BVA        FA
  0 C      6.0591     6.0000    -0.0591     4.3232     4.3232    -0.0000
  1 N      7.1942     7.0000    -0.1942     2.7238     2.7238    -0.0000
  2 C      6.3007     6.0000    -0.3007     3.9838     3.9838    -0.0000
  3 C      6.2803     6.0000    -0.2803     4.3295     4.3295    -0.0000
  4 C      5.5519     6.0000     0.4481     4.1044     4.1044     0.0000
  5 C      6.0659     6.0000    -0.0659     3.3082     3.3082    -0.0000
  6 N      7.0596     7.0000    -0.0596     3.9464     3.9464    -0.0000
  7 O      8.0585     8.0000    -0.0585     2.2194     2.2194    -0.0000
  8 O      8.2353     8.0000    -0.2353     2.0208     2.0208    -0.0000
  9 F      9.1024     9.0000    -0.1024     0.9623     0.9623    -0.0000
 10 H      0.7033     1.0000     0.2967     0.8703     0.8703     0.0000
 11 H      0.7172     1.0000     0.2828     0.9021     0.9021     0.0000
 12 H      0.6704     1.0000     0.3296     0.8282     0.8282    -0.0000
 13 C      6.4206     6.0000    -0.4206     3.5940     3.5940     0.0000
 14 H      0.8724     1.0000     0.1276     0.9436     0.9436     0.0000
 15 H      0.8720     1.0000     0.1280     0.9400     0.9400     0.0000
 16 H      0.8714     1.0000     0.1286     0.9377     0.9377     0.0000
 17 S     16.9647    16.0000    -0.9647     0.6234     0.6234     0.0000

  Mayer bond orders larger than 0.100000
B(  0-C ,  1-N ) :   1.3059 B(  0-C ,  2-C ) :   0.1884 B(  0-C ,  3-C ) :   0.1195 
B(  0-C ,  4-C ) :   0.2648 B(  0-C ,  5-C ) :   1.2213 B(  0-C ,  6-N ) :  -0.1725 
B(  0-C ,  9-F ) :   1.4241 B(  1-N ,  2-C ) :   1.2043 B(  1-N ,  5-C ) :   0.1723 
B(  2-C ,  3-C ) :   1.5758 B(  2-C , 10-H ) :   0.8829 B(  3-C ,  4-C ) :   1.5050 
B(  3-C ,  8-O ) :   0.1356 B(  3-C , 11-H ) :   0.8468 B(  4-C ,  5-C ) :   1.5571 
B(  4-C ,  6-N ) :  -0.1576 B(  4-C ,  8-O ) :   0.1913 B(  4-C ,  9-F ) :  -0.1221 
[...]
 289   0.0000       5.110285       139.0579 
 290   0.0000       5.212435       141.8376 
 291   0.0000       5.256552       143.0380 
 292   0.0000       5.390987       146.6962 
 293   0.0000       5.803290       157.9156 
 294   0.0000       6.265593       170.4955 
 295   0.0000       6.431064       174.9982 
 296   0.0000       6.553040       178.3173 
 297   0.0000       6.864029       186.7797 
 298   0.0000       7.983337       217.2376 
 299   0.0000      17.548767       477.5262 
 300   0.0000      17.552242       477.6208 
 301   0.0000      17.649003       480.2538 
 302   0.0000      23.715995       645.3450 
 303   0.0000      23.975161       652.3973 
 304   0.0000      24.031293       653.9247 
 305   0.0000      24.035590       654.0417 
 306   0.0000      24.188049       658.1903 
 307   0.0000      24.289666       660.9554 
 308   0.0000      35.404918       963.4168 
 309   0.0000      35.754928       972.9410 
 310   0.0000      49.911549      1358.1623 
 311   0.0000      49.991915      1360.3492 
 312   0.0000      66.807836      1817.9336 
 313   0.0000     188.973128      5142.2202 

--------------------
FRAGMENT INFORMATION
--------------------
Fragment  1:    0   1   2   3   4   5 
Fragment  2:    6   7   8   9  10  11  12 
Fragment  3:   13  14  15  16 
Fragment  4:   17 


                    ********************************
                    * MULLIKEN POPULATION ANALYSIS *
                    ********************************

-------------------------
MULLIKEN FRAGMENT CHARGES
-------------------------
 Fragment   0 :  -0.456890
 Fragment   1 :   0.457937
 Fragment   2 :  -0.037425
 Fragment   3 :  -0.963622
Sum of fragment charges:   -1.0000000

---------------------------------
MULLIKEN FRAGMENT OVERLAP CHARGES
---------------------------------
                  0          1          2          3    
      0      16.927897   0.489739  -0.000850   0.001617
      1       0.489739  35.009523   0.000332   0.005327
      2      -0.000850   0.000332  11.650891  -0.642843
      3       0.001617   0.005327  -0.642843  17.281572

-----------------------
MULLIKEN ATOMIC CHARGES
-----------------------
   0 C :    0.015350
   1 N :   -0.184736
   2 C :   -0.256610
   3 C :   -0.361519
   4 C :    0.447356
   5 C :   -0.116731
   6 N :   -0.017796
   7 O :   -0.112358
   8 O :   -0.164832
   9 F :   -0.122642
  10 H :    0.284612
  11 H :    0.273358
  12 H :    0.317595
  13 C :   -0.421869
  14 H :    0.127946
  15 H :    0.127840
  16 H :    0.128658
  17 S :   -0.963622
Sum of atomic charges:   -1.0000000

--------------------------------
MULLIKEN REDUCED ORBITAL CHARGES
--------------------------------
  0 C s       :     3.217963  s :     3.217963
      pz      :     0.669145  p :     2.595372
      px      :     0.977892
      py      :     0.948335
      dz2     :     0.058111  d :     0.171316
      dxz     :     0.050710
      dyz     :     0.029378
      dx2y2   :     0.014717
      dxy     :     0.018401
  1 N s       :     3.586763  s :     3.586763
      pz      :     1.160329  p :     3.562863
      px      :     1.251666
      py      :     1.150868
      dz2     :     0.008890  d :     0.035110
      dxz     :     0.008777
      dyz     :     0.005438
      dx2y2   :     0.006119
      dxy     :     0.005886
  2 C s       :     3.308116  s :     3.308116
      pz      :     0.823642  p :     2.857599
      px      :     1.160963
      py      :     0.872994
      dz2     :     0.025647  d :     0.090895
      dxz     :     0.034471
      dyz     :     0.016172
      dx2y2   :     0.007956
      dxy     :     0.006650
  3 C s       :     3.276400  s :     3.276400
      pz      :     1.163052  p :     3.028500
      px      :     0.895906
      py      :     0.969542
      dz2     :     0.015871  d :     0.056619
      dxz     :     0.019247
      dyz     :     0.005571
      dx2y2   :     0.008214
      dxy     :     0.007716
  4 C s       :     2.467176  s :     2.467176
      pz      :     0.929943  p :     3.023828
      px      :     1.252730
      py      :     0.841156
      dz2     :     0.018733  d :     0.061640
      dxz     :     0.015071
      dyz     :     0.011740
      dx2y2   :     0.008739
      dxy     :     0.007357
  5 C s       :     3.319829  s :     3.319829
      pz      :     1.092944  p :     2.721616
      px      :     0.495910
      py      :     1.132762
      dz2     :     0.013254  d :     0.075286
      dxz     :     0.031979
      dyz     :     0.010686
      dx2y2   :     0.011178
      dxy     :     0.008189
  6 N s       :     3.510301  s :     3.510301
      pz      :     1.049343  p :     3.381191
      px      :     1.226233
      py      :     1.105616
      dz2     :     0.033640  d :     0.126304
      dxz     :     0.043281
      dyz     :     0.027108
      dx2y2   :     0.010095
      dxy     :     0.012180
  7 O s       :     3.793667  s :     3.793667
      pz      :     1.022677  p :     4.300206
      px      :     1.834029
      py      :     1.443499
      dz2     :     0.009781  d :     0.018485
      dxz     :     0.003392
      dyz     :     0.005164
      dx2y2   :     0.000090
      dxy     :     0.000058
  8 O s       :     3.801059  s :     3.801059
      pz      :     1.530604  p :     4.347215
      px      :     1.336329
      py      :     1.480282
      dz2     :     0.001873  d :     0.016558
      dxz     :     0.006590
      dyz     :     0.001679
      dx2y2   :     0.003398
      dxy     :     0.003019
  9 F s       :     3.918555  s :     3.918555
      pz      :     1.401213  p :     5.198873
      px      :     1.919350
      py      :     1.878311
      dz2     :     0.003036  d :     0.005214
      dxz     :     0.000968
      dyz     :     0.001171
      dx2y2   :     0.000029
      dxy     :     0.000010
 10 H s       :     0.692049  s :     0.692049
      pz      :     0.004604  p :     0.023338
      px      :     0.014433
      py      :     0.004301
 11 H s       :     0.700504  s :     0.700504
      pz      :     0.016339  p :     0.026138
      px      :     0.004414
      py      :     0.005385
 12 H s       :     0.654226  s :     0.654226
      pz      :     0.007282  p :     0.028179
      px      :     0.015919
      py      :     0.004977
 13 C s       :     3.281277  s :     3.281277
      pz      :     1.026641  p :     3.087946
      px      :     1.053856
      py      :     1.007449
      dz2     :     0.008827  d :     0.052646
      dxz     :     0.011934
      dyz     :     0.011572
      dx2y2   :     0.015799
      dxy     :     0.004514
 14 H s       :     0.849385  s :     0.849385
      pz      :     0.006667  p :     0.022670
      px      :     0.004774
      py      :     0.011229
 15 H s       :     0.849451  s :     0.849451
      pz      :     0.005402  p :     0.022709
      px      :     0.012595
      py      :     0.004712
 16 H s       :     0.848631  s :     0.848631
      pz      :     0.010426  p :     0.022711
      px      :     0.007625
      py      :     0.004659
 17 S s       :     6.007573  s :     6.007573
      pz      :     3.611898  p :    10.924646
      px      :     3.928155
      py      :     3.384594
      dz2     :     0.003077  d :     0.031403
      dxz     :     0.003083
      dyz     :     0.014394
      dx2y2   :     0.006389
      dxy     :     0.004459


                     *******************************
                     * LOEWDIN POPULATION ANALYSIS *
                     *******************************

------------------------
LOEWDIN FRAGMENT CHARGES
------------------------
 Fragment   0 :   0.046779
 Fragment   1 :  -0.052737
 Fragment   2 :  -0.354614
 Fragment   3 :  -0.639429

----------------------------
LOEWDIN FRAGMENT BOND ORDERS
----------------------------
                  0          1          2          3    
      0      57.187585   6.757327   0.002006   0.010642
      1       6.757327  44.072121   0.000268   0.001589
      2       0.002006   0.000268  15.416057   1.744254
      3       0.010642   0.001589   1.744254  16.639429

----------------------
LOEWDIN ATOMIC CHARGES
----------------------
   0 C :    0.081446
   1 N :   -0.073550
   2 C :    0.052108
   3 C :   -0.029601
   4 C :    0.076603
   5 C :   -0.060226
   6 N :    0.224502
   7 O :   -0.186073
   8 O :   -0.252969
   9 F :   -0.089045
  10 H :    0.084661
  11 H :    0.078744
  12 H :    0.087443
  13 C :   -0.358380
  14 H :    0.001486
  15 H :    0.001106
  16 H :    0.001174
  17 S :   -0.639429

-------------------------------
LOEWDIN REDUCED ORBITAL CHARGES
-------------------------------
  0 C s       :     2.729134  s :     2.729134
      pz      :     0.851906  p :     2.835996
      px      :     1.096080
      py      :     0.888010
      dz2     :     0.123670  d :     0.353424
      dxz     :     0.104498
      dyz     :     0.052030
      dx2y2   :     0.037617
      dxy     :     0.035609
  1 N s       :     3.097918  s :     3.097918
      pz      :     1.306947  p :     3.909280
      px      :     1.433068
      py      :     1.169265
      dz2     :     0.019286  d :     0.066353
      dxz     :     0.018867
      dyz     :     0.009510
      dx2y2   :     0.010815
      dxy     :     0.007876
  2 C s       :     2.769510  s :     2.769510
      pz      :     1.045991  p :     2.979674
      px      :     1.092294
      py      :     0.841388
      dz2     :     0.065962  d :     0.198708
      dxz     :     0.075041
      dyz     :     0.031416
      dx2y2   :     0.015305
      dxy     :     0.010985
  3 C s       :     2.763909  s :     2.763909
      pz      :     1.083704  p :     3.134308
      px      :     1.093919
      py      :     0.956684
      dz2     :     0.035693  d :     0.131385
      dxz     :     0.048334
      dyz     :     0.008702
      dx2y2   :     0.022460
      dxy     :     0.016196
  4 C s       :     2.757082  s :     2.757082
      pz      :     1.083767  p :     3.027422
      px      :     1.101945
      py      :     0.841711
      dz2     :     0.045490  d :     0.138893
      dxz     :     0.039320
      dyz     :     0.023709
      dx2y2   :     0.017499
      dxy     :     0.012876
  5 C s       :     2.748381  s :     2.748381
      pz      :     1.094770  p :     3.125320
      px      :     0.955860
      py      :     1.074690
      dz2     :     0.040096  d :     0.186525
      dxz     :     0.076773
      dyz     :     0.020875
      dx2y2   :     0.031425
      dxy     :     0.017355
  6 N s       :     3.018061  s :     3.018061
      pz      :     1.213353  p :     3.515201
      px      :     1.221459
      py      :     1.080390
      dz2     :     0.071742  d :     0.242235
      dxz     :     0.087197
      dyz     :     0.042435
      dx2y2   :     0.021119
      dxy     :     0.019742
  7 O s       :     3.577430  s :     3.577430
      pz      :     1.274966  p :     4.576619
      px      :     1.843321
      py      :     1.458331
      dz2     :     0.020557  d :     0.032025
      dxz     :     0.004966
      dyz     :     0.006333
      dx2y2   :     0.000107
      dxy     :     0.000062
  8 O s       :     3.598146  s :     3.598146
      pz      :     1.652011  p :     4.626139
      px      :     1.478442
      py      :     1.495686
      dz2     :     0.002740  d :     0.028683
      dxz     :     0.013316
      dyz     :     0.002247
      dx2y2   :     0.006475
      dxy     :     0.003905
  9 F s       :     3.713521  s :     3.713521
      pz      :     1.541049  p :     5.368282
      px      :     1.937175
      py      :     1.890057
      dz2     :     0.004676  d :     0.007241
      dxz     :     0.001168
      dyz     :     0.001348
      dx2y2   :     0.000040
      dxy     :     0.000010
 10 H s       :     0.846922  s :     0.846922
      pz      :     0.014326  p :     0.068417
      px      :     0.042523
      py      :     0.011568
 11 H s       :     0.845860  s :     0.845860
      pz      :     0.047531  p :     0.075396
      px      :     0.013231
      py      :     0.014634
 12 H s       :     0.832150  s :     0.832150
      pz      :     0.021172  p :     0.080407
      px      :     0.046214
      py      :     0.013021
 13 C s       :     2.858499  s :     2.858499
      pz      :     1.132557  p :     3.393001
      px      :     1.120293
      py      :     1.140151
      dz2     :     0.017177  d :     0.106879
      dxz     :     0.023563
      dyz     :     0.025283
      dx2y2   :     0.032054
      dxy     :     0.008802
 14 H s       :     0.926741  s :     0.926741
      pz      :     0.020420  p :     0.071773
      px      :     0.013936
      py      :     0.037416
 15 H s       :     0.927110  s :     0.927110
      pz      :     0.016716  p :     0.071783
      px      :     0.040708
      py      :     0.014360
 16 H s       :     0.927055  s :     0.927055
      pz      :     0.034067  p :     0.071772
      px      :     0.023441
      py      :     0.014263
 17 S s       :     5.611372  s :     5.611372
      pz      :     3.644873  p :    10.990856
      px      :     3.885172
      py      :     3.460810
      dz2     :     0.003446  d :     0.037201
      dxz     :     0.003592
      dyz     :     0.017370
      dx2y2   :     0.007588
      dxy     :     0.005205


                      *****************************
                      * MAYER POPULATION ANALYSIS *
                      *****************************

  NA   - Mulliken gross atomic population
  ZA   - Total nuclear charge
  QA   - Mulliken gross atomic charge
  VA   - Mayer's total valence
  BVA  - Mayer's bonded valence
  FA   - Mayer's free valence

  ATOM       NA         ZA         QA         VA         BVA        FA
  0 C      5.9847     6.0000     0.0153     4.2406     4.2406     0.0000
  1 N      7.1847     7.0000    -0.1847     2.7524     2.7524    -0.0000
  2 C      6.2566     6.0000    -0.2566     4.0170     4.0170     0.0000
  3 C      6.3615     6.0000    -0.3615     4.4918     4.4918     0.0000
  4 C      5.5526     6.0000     0.4474     4.1586     4.1586    -0.0000
  5 C      6.1167     6.0000    -0.1167     3.4504     3.4504     0.0000
  6 N      7.0178     7.0000    -0.0178     3.9801     3.9801     0.0000
  7 O      8.1124     8.0000    -0.1124     2.1936     2.1936    -0.0000
  8 O      8.1648     8.0000    -0.1648     2.1652     2.1652     0.0000
  9 F      9.1226     9.0000    -0.1226     0.9244     0.9244     0.0000
 10 H      0.7154     1.0000     0.2846     0.8713     0.8713     0.0000
 11 H      0.7266     1.0000     0.2734     0.9119     0.9119     0.0000
 12 H      0.6824     1.0000     0.3176     0.8360     0.8360    -0.0000
 13 C      6.4219     6.0000    -0.4219     3.5931     3.5931     0.0000
 14 H      0.8721     1.0000     0.1279     0.9434     0.9434     0.0000
 15 H      0.8722     1.0000     0.1278     0.9401     0.9401     0.0000
 16 H      0.8713     1.0000     0.1287     0.9375     0.9375     0.0000
 17 S     16.9636    16.0000    -0.9636     0.6216     0.6216    -0.0000

  Mayer bond orders larger than 0.100000
B(  0-C ,  1-N ) :   1.3139 B(  0-C ,  2-C ) :   0.1811 B(  0-C ,  3-C ) :   0.1532 
B(  0-C ,  4-C ) :   0.2519 B(  0-C ,  5-C ) :   1.2098 B(  0-C ,  6-N ) :  -0.1819 
B(  0-C ,  8-O ) :  -0.1069 B(  0-C ,  9-F ) :   1.3721 B(  1-N ,  2-C ) :   1.1708 
B(  1-N ,  5-C ) :   0.2075 B(  2-C ,  3-C ) :   1.6457 B(  2-C ,  5-C ) :   0.1103 
B(  2-C , 10-H ) :   0.8906 B(  3-C ,  4-C ) :   1.4522 B(  3-C ,  8-O ) :   0.1695 
B(  3-C , 11-H ) :   0.8412 B(  4-C ,  5-C ) :   1.6282 B(  4-C ,  6-N ) :  -0.1077 
B(  4-C ,  8-O ) :   0.2590 B(  4-C ,  9-F ) :  -0.1407 B(  4-C , 12-H ) :   0.7283 
B(  5-C ,  6-N ) :   0.7054 B(  5-C ,  8-O ) :  -0.2274 B(  5-C ,  9-F ) :  -0.3411 
B(  5-C , 12-H ) :   0.1366 B(  6-N ,  7-O ) :   1.8434 B(  6-N ,  8-O ) :   1.7826 
B(  7-O ,  8-O ) :   0.2821 B( 13-C , 14-H ) :   0.9823 B( 13-C , 15-H ) :   0.9832 
B( 13-C , 16-H ) :   0.9822 B( 13-C , 17-S ) :   0.6474 

-------
TIMINGS
-------

Total SCF time: 0 days 0 hours 0 min 20 sec 

Total time                  ....      20.075 sec
Sum of individual times     ....      19.470 sec  ( 97.0%)

Fock matrix formation       ....      17.172 sec  ( 85.5%)
  Split-RI-J                ....       1.010 sec  (  5.9% of F)
  Chain of spheres X        ....      12.465 sec  ( 72.6% of F)
  XC integration            ....       2.039 sec  ( 11.9% of F)
    Basis function eval.    ....       0.173 sec  (  8.5% of XC)
    Density eval.           ....       0.173 sec  (  8.5% of XC)
    XC-Functional eval.     ....       0.339 sec  ( 16.6% of XC)
    XC-Potential eval.      ....       0.121 sec  (  5.9% of XC)
Diagonalization             ....       0.027 sec  (  0.1%)
Density matrix formation    ....       0.010 sec  (  0.1%)
Population analysis         ....       0.468 sec  (  2.3%)
Initial guess               ....       0.039 sec  (  0.2%)
Orbital Transformation      ....       0.000 sec  (  0.0%)
Orbital Orthonormalization  ....       0.020 sec  (  0.1%)
DIIS solution               ....       0.011 sec  (  0.1%)
SOSCF solution              ....       0.137 sec  (  0.7%)
Grid generation             ....       1.606 sec  (  8.0%)

Maximum memory used throughout the entire SCF-calculation: 68.8 MB

-------------------------   --------------------
FINAL SINGLE POINT ENERGY      -990.257030277511
-------------------------   --------------------

                                *** OPTIMIZATION RUN DONE ***

                            ***************************************
                            *     ORCA property calculations      *
                            ***************************************

                                    ---------------------
                                    Active property flags
                                    ---------------------
   (+) Dipole Moment


------------------------------------------------------------------------------
                       ORCA ELECTRIC PROPERTIES CALCULATION
------------------------------------------------------------------------------

Dipole Moment Calculation                       ... on
Quadrupole Moment Calculation                   ... off
Polarizability Calculation                      ... off
GBWName                                         ... structure_opt.gbw
Electron density                                ... structure_opt.scfp
The origin for moment calculation is the CENTER OF MASS  = (-2.160354, -2.559343  5.512108)

-------------
DIPOLE MOMENT
-------------
                                X             Y             Z
Electronic contribution:      3.21437      20.17939     -13.48484
Nuclear contribution   :     -0.77612     -13.20968      14.29933
                        -----------------------------------------
Total Dipole Moment    :      2.43825       6.96971       0.81449
                        -----------------------------------------
Magnitude (a.u.)       :      7.42868
Magnitude (Debye)      :     18.88221



--------------------
Rotational spectrum 
--------------------
 
Rotational constants in cm-1:     0.028946     0.009910     0.008946 
Rotational constants in MHz :   867.767730   297.092378   268.183472 

 Dipole components along the rotational axes: 
x,y,z [a.u.] :    -6.408567     2.635004     2.678120 
x,y,z [Debye]:   -16.289284     6.697647     6.807239 

 

Timings for individual modules:

Sum of individual times         ...      822.540 sec (=  13.709 min)
GTO integral calculation        ...       47.441 sec (=   0.791 min)   5.8 %
SCF iterations                  ...      634.938 sec (=  10.582 min)  77.2 %
SCF Gradient evaluation         ...      139.299 sec (=   2.322 min)  16.9 %
Geometry relaxation             ...        0.863 sec (=   0.014 min)   0.1 %
                             ****ORCA TERMINATED NORMALLY****
TOTAL RUN TIME: 0 days 0 hours 14 minutes 37 seconds 120 msec
