
                                 *****************
                                 * O   R   C   A *
                                 *****************

                                            #,                                       
                                            ###                                      
                                            ####                                     
                                            #####                                    
                                            ######                                   
                                           ########,                                 
                                     ,,################,,,,,                         
                               ,,#################################,,                 
                          ,,##########################################,,             
                       ,#########################################, ''#####,          
                    ,#############################################,,   '####,        
                  ,##################################################,,,,####,       
                ,###########''''           ''''###############################       
              ,#####''   ,,,,##########,,,,          '''####'''          '####       
            ,##' ,,,,###########################,,,                        '##       
           ' ,,###''''                  '''############,,,                           
         ,,##''                                '''############,,,,        ,,,,,,###''
      ,#''                                            '''#######################'''  
     '                                                          ''''####''''         
             ,#######,   #######,   ,#######,      ##                                
            ,#'     '#,  ##    ##  ,#'     '#,    #''#        ######   ,####,        
            ##       ##  ##   ,#'  ##            #'  '#       #        #'  '#        
            ##       ##  #######   ##           ,######,      #####,   #    #        
            '#,     ,#'  ##    ##  '#,     ,#' ,#      #,         ##   #,  ,#        
             '#######'   ##     ##  '#######'  #'      '#     #####' # '####'        



                  #######################################################
                  #                        -***-                        #
                  #          Department of theory and spectroscopy      #
                  #    Directorship and core code : Frank Neese         #
                  #        Max Planck Institute fuer Kohlenforschung    #
                  #                Kaiser Wilhelm Platz 1               #
                  #                 D-45470 Muelheim/Ruhr               #
                  #                      Germany                        #
                  #                                                     #
                  #                  All rights reserved                #
                  #                        -***-                        #
                  #######################################################


                         Program Version 5.0.1 -  RELEASE  -


 With contributions from (in alphabetic order):
   Daniel Aravena         : Magnetic Suceptibility
   Michael Atanasov       : Ab Initio Ligand Field Theory (pilot matlab implementation)
   Alexander A. Auer      : GIAO ZORA, VPT2 properties, NMR spectrum
   Ute Becker             : Parallelization
   Giovanni Bistoni       : ED, misc. LED, open-shell LED, HFLD
   Martin Brehm           : Molecular dynamics
   Dmytro Bykov           : SCF Hessian
   Vijay G. Chilkuri      : MRCI spin determinant printing, contributions to CSF-ICE
   Dipayan Datta          : RHF DLPNO-CCSD density
   Achintya Kumar Dutta   : EOM-CC, STEOM-CC
   Dmitry Ganyushin       : Spin-Orbit,Spin-Spin,Magnetic field MRCI
   Miquel Garcia          : C-PCM and meta-GGA Hessian, CC/C-PCM, Gaussian charge scheme
   Yang Guo               : DLPNO-NEVPT2, F12-NEVPT2, CIM, IAO-localization
   Andreas Hansen         : Spin unrestricted coupled pair/coupled cluster methods
   Benjamin Helmich-Paris : MC-RPA, TRAH-SCF, COSX integrals
   Lee Huntington         : MR-EOM, pCC
   Robert Izsak           : Overlap fitted RIJCOSX, COSX-SCS-MP3, EOM
   Marcus Kettner         : VPT2
   Christian Kollmar      : KDIIS, OOCD, Brueckner-CCSD(T), CCSD density, CASPT2, CASPT2-K
   Simone Kossmann        : Meta GGA functionals, TD-DFT gradient, OOMP2, MP2 Hessian
   Martin Krupicka        : Initial AUTO-CI
   Lucas Lang             : DCDCAS
   Marvin Lechner         : AUTO-CI (C++ implementation), FIC-MRCC
   Dagmar Lenk            : GEPOL surface, SMD
   Dimitrios Liakos       : Extrapolation schemes; Compound Job, initial MDCI parallelization
   Dimitrios Manganas     : Further ROCIS development; embedding schemes
   Dimitrios Pantazis     : SARC Basis sets
   Anastasios Papadopoulos: AUTO-CI, single reference methods and gradients
   Taras Petrenko         : DFT Hessian,TD-DFT gradient, ASA, ECA, R-Raman, ABS, FL, XAS/XES, NRVS
   Peter Pinski           : DLPNO-MP2, DLPNO-MP2 Gradient
   Christoph Reimann      : Effective Core Potentials
   Marius Retegan         : Local ZFS, SOC
   Christoph Riplinger    : Optimizer, TS searches, QM/MM, DLPNO-CCSD(T), (RO)-DLPNO pert. Triples
   Tobias Risthaus        : Range-separated hybrids, TD-DFT gradient, RPA, STAB
   Michael Roemelt        : Original ROCIS implementation
   Masaaki Saitow         : Open-shell DLPNO-CCSD energy and density
   Barbara Sandhoefer     : DKH picture change effects
   Avijit Sen             : IP-ROCIS
   Kantharuban Sivalingam : CASSCF convergence, NEVPT2, FIC-MRCI
   Bernardo de Souza      : ESD, SOC TD-DFT
   Georgi Stoychev        : AutoAux, RI-MP2 NMR, DLPNO-MP2 response
   Willem Van den Heuvel  : Paramagnetic NMR
   Boris Wezisla          : Elementary symmetry handling
   Frank Wennmohs         : Technical directorship


 We gratefully acknowledge several colleagues who have allowed us to
 interface, adapt or use parts of their codes:
   Stefan Grimme, W. Hujo, H. Kruse, P. Pracht,  : VdW corrections, initial TS optimization,
                  C. Bannwarth, S. Ehlert          DFT functionals, gCP, sTDA/sTD-DF
   Ed Valeev, F. Pavosevic, A. Kumar             : LibInt (2-el integral package), F12 methods
   Garnet Chan, S. Sharma, J. Yang, R. Olivares  : DMRG
   Ulf Ekstrom                                   : XCFun DFT Library
   Mihaly Kallay                                 : mrcc  (arbitrary order and MRCC methods)
   Jiri Pittner, Ondrej Demel                    : Mk-CCSD
   Frank Weinhold                                : gennbo (NPA and NBO analysis)
   Christopher J. Cramer and Donald G. Truhlar   : smd solvation model
   Lars Goerigk                                  : TD-DFT with DH, B97 family of functionals
   V. Asgeirsson, H. Jonsson                     : NEB implementation
   FAccTs GmbH                                   : IRC, NEB, NEB-TS, DLPNO-Multilevel, CI-OPT
                                                   MM, QMMM, 2- and 3-layer-ONIOM, Crystal-QMMM,
                                                   LR-CPCM, SF, NACMEs, symmetry and pop. for TD-DFT,
                                                   nearIR, NL-DFT gradient (VV10), updates on ESD,
                                                   ML-optimized integration grids
   S Lehtola, MJT Oliveira, MAL Marques          : LibXC Library
   Liviu Ungur et al                             : ANISO software


 Your calculation uses the libint2 library for the computation of 2-el integrals
 For citations please refer to: http://libint.valeyev.net

 Your ORCA version has been built with support for libXC version: 5.1.0
 For citations please refer to: https://tddft.org/programs/libxc/

 This ORCA versions uses:
   CBLAS   interface :  Fast vector & matrix operations
   LAPACKE interface :  Fast linear algebra routines
   SCALAPACK package :  Parallel linear algebra routines
   Shared memory     :  Shared parallel matrices
   BLAS/LAPACK       :  OpenBLAS 0.3.15  USE64BITINT DYNAMIC_ARCH NO_AFFINITY SkylakeX SINGLE_THREADED
        Core in use  :  SkylakeX
   Copyright (c) 2011-2014, The OpenBLAS Project




***************************************
The coordinates will be read from file: structure_opt.xyz
***************************************


Your calculation utilizes the atom-pairwise dispersion correction
based on tight binding partial charges (D4)
Cite in your paper:
E.Caldeweyher, C.Bannwarth, S.Grimme, J.Chem.Phys., (2017), 147, 034112.
E.Caldeweyher, S.Ehlert, A.Hansen, H.Neugebauer, S.Grimme, J.Chem.Phys., (2018), in progress.
   

Your calculation utilizes the SMD solvation module
Please cite in your paper:
A.V. Marenich, C.J. Cramer, D.G. Truhlar J. Phys. Chem. B, 113, (2009), 6378 

XCFun DFT library Copyright 2009-2010 Ulf Ekstrom and contributors.
See http://admol.org/xcfun for more information.
This is free software; see the source code for copying conditions.
There is ABSOLUTELY NO WARRANTY; not even for MERCHANTABILITY or FITNESS FOR A PARTICULAR PURPOSE.
For details see the documentation.
Scientific users of this library should cite U. Ekstrom, L. Visscher, R. Bast, A. J. Thorvaldsen and K. Ruud;
J.Chem.Theor.Comp. 2010, DOI: 10.1021/ct100117s
XCFun Version 0.99 

Your calculation utilizes a Nudged-Elastic-Band implementation
 by V.Asgeirsson, C. Riplinger & H. Jonsson
Please cite in your paper:
 V. Asgeirsson et al., in prep. (2019)
   

================================================================================

----- Orbital basis set information -----
Your calculation utilizes the basis: 6-311++G**
   H, Li - Ne  : R. Krishnan, J. S. Binkley, R. Seeger and J. A. Pople, J. Chem. Phys. 72, 650 (1980).
   Na - Ar     : A. D. McLean and G. S. Chandler J. Chem. Phys. 72, 5639, (1980).
   K  - Ca     : J.-P. Blaudeau, M. P. McGrath, L. A. Curtiss and L. Radom, J. Chem. Phys. 107, 5016 (1997).
   Ga - Kr     : L. A. Curtiss, M. P. McGrath, J.-P. Blandeau, N. E. Davis, R. C. Binning and L. Radom, J. Chem. Phys. 103, 6104 (1995).
   Pol./Diff.
   H, Li - Cl  : T. Clark, J. Chandrasekhar and P. v. R. Schleyer, J. Comp. Chem. 4, 294 (1983).
   H - Ne      : M. J. Frisch, J. A. Pople and J. S. Binkley, J. Chem. Phys. 80, 3265 (1984).

----- AuxJ basis set information -----
Your calculation utilizes the auxiliary basis: def2/J
   F. Weigend, Phys. Chem. Chem. Phys. 8, 1057 (2006).

================================================================================
                                        WARNINGS
                       Please study these warnings very carefully!
================================================================================


WARNING: The environment variable RSH_COMMAND is not set!
  ===> : All Displacements for the Numerical Hessian calculation
         will be started on localhost

WARNING: Geometry Optimization
  ===> : Switching off AutoStart
         For restart on a previous wavefunction, please use MOREAD

INFO   : the flag for use of the SHARK integral package has been found!

================================================================================
                                       INPUT FILE
================================================================================
NAME = TS_search_opt_without_h.inp
|  1> !wb97x 6-311++G** D4 NEB-TS OPT NUMFREQ CPCM(WATER)
|  2> %maxcore  3500
|  3> %pal
|  4> nprocs 24
|  5> end
|  6> %cpcm
|  7> smd true
|  8> SMDsolvent "water"
|  9> end
| 10> %geom
| 11> MaxIter 1000   # allows for n optimization cycles
| 12> EnforceStrictConvergence False
| 13> end
| 14> %NEB NEB_END_XYZFILE "2f3_prod_opt.xyz" END
| 15> * XYZfile -1 1 structure_opt.xyz
| 16> 
| 17>                          ****END OF INPUT****
================================================================================


------------------------------------------------------------------------------- 
                         Nudged Elastic Band Calculation                       
------------------------------------------------------------------------------- 

Number of images (incl. end points)     ....  10
Number of intermediate images           ....  8
Number of optimized images              ....  8
Optimization of end points before NEB   ....  NO
Use existing gbw files for MO input     ....  NO
Number of atoms                         ....  18
Number of (active) degrees of freedom   ....  54
Constrained atoms                       ....  None

-----------------------------------------
  REACTANT (ANGSTROEM)
-----------------------------------------
C      0.003603    -0.019959     1.873467 
N      1.119945    -0.189818     2.499683 
C      1.198639    -0.182163     3.819093 
C      0.089547     0.005870     4.596622 
C     -1.123447     0.190950     3.963040 
C     -1.192329     0.181227     2.597134 
N     -2.455144     0.374664     1.931498 
O     -2.535573     0.369933     0.686134 
O     -3.466414     0.547527     2.696652 
F      0.008655    -0.039688     0.523620 
H      2.180905    -0.333549     4.252617 
H      0.253914    -0.006113     5.646374 
H     -2.050998     0.345972     4.430496 
C     -2.207434    -6.752924     5.154356 
H     -2.082600    -7.700602     4.623073 
H     -3.250059    -6.655527     5.469313 
H     -1.566071    -6.756426     6.040141 
S     -1.757140    -5.379374     4.076689 

-----------------------------------------
  PRODUCT (ANGSTROEM)
-----------------------------------------
C     -0.006655     0.014080     1.789576 
N      1.150760    -0.163122     2.425247 
C      1.177726    -0.139964     3.759145 
C      0.054738     0.057580     4.546999 
C     -1.158972     0.233636     3.911162 
C     -1.178720     0.217442     2.525234 
N     -2.493686     0.427964     1.904940 
O     -2.584738     1.164910     0.947848 
O     -3.439094    -0.145340     2.414303 
F      3.139899     2.499865     0.919104 
H      2.152169    -0.281946     4.215772 
H      0.130494     0.071637     5.627108 
H     -2.077395     0.389730     4.465403 
C      0.049505     1.625975    -0.482258 
H     -0.875798     2.113075    -0.187252 
H      0.131238     1.624494    -1.570971 
H      0.921382     2.132605    -0.060262 
S      0.064147    -0.119619     0.009902 



----------------------
NEB settings
----------------------
Method type                             ....  climbing image
Threshold for climbing image            ....  2.00e-02 Eh/Bohr 
Free endpoints                          ....  off 
Tangent type                            ....  improved 
Number of intermediate images           ....  8 
Number of images free to move           ....  8 
Spring type for image distribution      ....  distance between adjacent images 
Spring constant                         ....  energy weighted (0.0100 -to- 0.1000) Eh/Bohr^2 
Spring force perp. to the path          ....  none 
Generation of initial path              ....  image dependent pair potential 
Initial path via TS guess               ....  off 

Minimization of RMSD: Rotation          ....  always 
Minimization of RMSD: Translation type  ....  centroid 
Center fixed to origin                  ....  true 
Remove external force                   ....  true 

Reparametrization of the path           ....  off 
Convergence thresholds:
Convergence monitored for               ....  all images
Scaling factor                          ....  10.00

Convergence parameters for regular images:
               Max(|Fp|)                ....  2.00e-02 Eh/Bohr
               RMS(Fp)                  ....  1.00e-02 Eh/Bohr

Convergence parameters for climbing image:
               Max(|F|)                 ....  2.00e-03 Eh/Bohr
               RMS(F)                   ....  1.00e-03 Eh/Bohr
Optimization method:
Method                                  ....  L-BFGS
Max. iterations                         ....  500 
Step size                               ....  1.00 
Maximum allowed step size               ....  0.10 Bohr

LBFGS parameters: 
               Memory                   ....  20 
               Initial step size        ....  0.0010 
               Estimate curvature       ....  YES 
               Reset on maxmove         ....  YES 
               Reparam. on reset        ....  NO 
Generation of  the initial path:
Minimize RMSD between reactant and product configurations     .... done
       RMSD before minimization         ....  6.0047 Bohr
       RMSD after minimization          ....  2.9550 Bohr
Performing linear interpolation         ....  done
Interpolation using                     ....  IDPP (Image Dependent Pair Potential)
IDPP-Settings:
       Remove global transl. and rot.   ...   true
       Convergence tolerance            ....  0.0100 1/Ang.^3
       Max. numer of iterations         ....    7000
       Spring constant                  ....  1.0000 1/Ang.^4
       Time step                        ....  0.0100 fs
       Max. movement per iteration      ....  0.0500 Ang.
       Full print                       ....  false 
idpp initial path generation successfully converged in 104 iterations
Displacement along initial path:             23.9672 Bohr
Writing initial trajectory to file      ....  TS_search_opt_without_h_initial_path_trj.xyz



----------------------
NEB OPTIMIZATION      
----------------------

Following output files will be written:
Energy profile during opt. written to    ....  TS_search_opt_without_h.interp
Optimization log-file                    ....  TS_search_opt_without_h.NEB.log
Current trajectory will be written to    ....  TS_search_opt_without_h_MEP_trj.xyz
       and to allxyz file                ....  TS_search_opt_without_h_MEP.allxyz
       and individual images to xyz file ....  TS_search_opt_without_h_im{NIm}.xyz
Trajectory history will be written to    ....  TS_search_opt_without_h_MEP_ALL_trj.xyz
Converged CI will be written to          ....  TS_search_opt_without_h_NEB-CI_converged.xyz
Converged TS will be written to          ....  TS_search_opt_without_h_NEB-TS_converged.xyz

Single point energy and gradient calculation of reactant and
product configurations (have to be performed only once)
Properties of fixed NEB end points:
               Reactant:
                         E               ....   -990.259618 Eh
                         RMS(F)          ....      0.017570 Eh/Bohr
                         MAX(|F|)        ....      0.060044 Eh/Bohr
      Warning: Reactant seems to be less converged than convergence tolerances.
               You might want to use free end NEB or preopt_ends true.
               Product:
                         E               ....   -990.305503 Eh
                         RMS(F)          ....      0.001273 Eh/Bohr
                         MAX(|F|)        ....      0.004366 Eh/Bohr



Starting iterations:

Optim.  Iteration  HEI  E(HEI)-E(0)  max(|Fp|)   RMS(Fp)    dS
Switch-on CI threshold               0.020000 
   LBFGS     0      4    0.171186    0.105549   0.020211  23.9672       
   LBFGS     1      4    0.148521    0.073125   0.010712  23.9641       
   LBFGS     2      4    0.148464    0.089356   0.012675  23.9623       
   LBFGS     3      4    0.147372    0.066264   0.010411  23.9500       
   LBFGS     4      4    0.149288    0.084877   0.012581  23.9566       
   LBFGS     5      4    0.143640    0.091255   0.010350  23.9690       
   LBFGS     6      4    0.143192    0.091284   0.011847  23.9791       
   LBFGS     7      4    0.143322    0.098466   0.012463  24.0013       
   LBFGS     8      4    0.140188    0.060648   0.007604  24.0001       
   LBFGS     9      4    0.140531    0.061913   0.008945  24.0134       
   LBFGS    10      4    0.142269    0.074268   0.010554  24.0491       
   LBFGS    11      4    0.142487    0.114077   0.011177  24.0799       
   LBFGS    12      4    0.137029    0.041800   0.008139  24.0939       
   LBFGS    13      4    0.135949    0.042644   0.007941  24.1513       
   LBFGS    14      4    0.135862    0.040985   0.008160  24.1752       
   LBFGS    15      4    0.135636    0.042441   0.008632  24.2101       
   LBFGS    16      4    0.135541    0.045729   0.009079  24.2891       
   LBFGS    17      4    0.135173    0.043052   0.007670  24.3194       
   LBFGS    18      4    0.133743    0.031528   0.005972  24.3402       
   LBFGS    19      4    0.133648    0.035149   0.005810  24.4381       
   LBFGS    20      4    0.136102    0.064783   0.006902  24.4790       
   LBFGS    21      4    0.134669    0.049515   0.007113  24.5279       
   LBFGS    22      4    0.133606    0.045303   0.007352  24.6595       
   LBFGS    23      4    0.133116    0.059567   0.006016  24.6921       
   LBFGS    24      4    0.130993    0.022966   0.004393  24.7139       
   LBFGS    25      4    0.133137    0.062393   0.007068  24.8667       
   LBFGS    26      4    0.130756    0.041750   0.004529  24.8886       
   LBFGS    27      4    0.129756    0.022524   0.003691  24.9091       
   LBFGS    28      4    0.129200    0.025045   0.005408  25.0550       
   LBFGS    29      4    0.128426    0.026334   0.004202  25.0863       
   LBFGS    30      4    0.127851    0.016758   0.003676  25.1181       

Image  4 will be converted to a climbing image in the next iteration (max(|Fp|) < 0.0200) 

Optim.  Iteration  CI   E(CI)-E(0)   max(|Fp|)   RMS(Fp)    dS     max(|FCI|)   RMS(FCI)
Convergence thresholds               0.020000   0.010000            0.002000    0.001000 
   LBFGS    31      4    0.127430    0.013266   0.002536  25.1348    0.007950    0.002001       
   LBFGS    32      4    0.127122    0.023333   0.004515  25.2213    0.009755    0.004404       
   LBFGS    33      4    0.126820    0.037025   0.006789  25.3723    0.015890    0.006949       
   LBFGS    34      4    0.125167    0.018824   0.003188  25.3896    0.008195    0.002374       

Possible intermediate minimum found at image(s): 1 
  => have a look at the .interp file.
  => it is often a good idea to divide the path calculation into smaller fragments. 

   LBFGS    35      4    0.124943    0.009280   0.002544  25.4080    0.008316    0.002467       
   LBFGS    36      4    0.124115    0.046062   0.006046  25.5190    0.010265    0.004765       
   LBFGS    37      4    0.123225    0.062268   0.008212  25.6506    0.014999    0.006345       
   LBFGS    38      4    0.122094    0.019528   0.002681  25.6466    0.009298    0.003065       
   LBFGS    39      4    0.121720    0.010652   0.002009  25.6536    0.009311    0.002192       
   LBFGS    40      4    0.121158    0.016260   0.002934  25.6873    0.009915    0.003854       
   LBFGS    41      4    0.120213    0.027838   0.004820  25.7609    0.016829    0.006500       
   LBFGS    42      4    0.118532    0.013010   0.002491  25.7502    0.010289    0.002541       
   LBFGS    43      4    0.118190    0.010117   0.001944  25.7461    0.010418    0.002623       
   LBFGS    44      4    0.117218    0.020253   0.003546  25.7422    0.011882    0.004027       
   LBFGS    45      4    0.115542    0.033773   0.005796  25.7595    0.019088    0.006053       
   LBFGS    46      4    0.114239    0.015409   0.002469  25.7735    0.011959    0.003251       
   LBFGS    47      4    0.113716    0.010770   0.001858  25.7852    0.011985    0.002607       
   LBFGS    48      4    0.112635    0.012454   0.002357  25.8222    0.012176    0.003883       
   LBFGS    49      4    0.110636    0.019447   0.003510  25.8758    0.013916    0.005809       
   LBFGS    50      4    0.108841    0.019574   0.003198  25.8378    0.013154    0.002867       
   LBFGS    51      4    0.108366    0.011559   0.002064  25.8207    0.013315    0.003138       
   LBFGS    52      4    0.107369    0.013705   0.002763  25.7987    0.013538    0.004265       
   LBFGS    53      4    0.104885    0.026123   0.004299  25.7907    0.014583    0.005738       
   LBFGS    54      4    0.103245    0.023237   0.003701  25.8301    0.013741    0.003233       
   LBFGS    55      4    0.102691    0.012680   0.002344  25.8524    0.013662    0.002913       
   LBFGS    56      4    0.101469    0.012893   0.002228  25.9058    0.013504    0.003998       
   LBFGS    57      4    0.099067    0.027114   0.003716  25.9798    0.013341    0.005294       
   LBFGS    58      4    0.096018    0.034821   0.004783  26.0596    0.013046    0.006047       
   LBFGS    59      4    0.094251    0.025067   0.003924  26.0174    0.013386    0.003560       
   LBFGS    60      4    0.093546    0.016581   0.002948  25.9902    0.013518    0.003160       
   LBFGS    61      4    0.091150    0.016961   0.003017  25.9121    0.014139    0.005577       
   LBFGS    62      4    0.088964    0.024001   0.003632  26.0218    0.013242    0.004088       
   LBFGS    63      4    0.087839    0.020341   0.002987  26.0626    0.013152    0.004560       
   LBFGS    64      4    0.086020    0.023681   0.003620  26.0938    0.013174    0.004173       
   LBFGS    65      4    0.081811    0.030180   0.004597  26.1731    0.013062    0.003689       

Possible intermediate minimum found at image(s): 1 
  => have a look at the .interp file.
  => it is often a good idea to divide the path calculation into smaller fragments. 

   LBFGS    66      4    0.081050    0.022861   0.003549  26.1571    0.013040    0.003536       
   LBFGS    67      4    0.080360    0.016711   0.002968  26.1489    0.012975    0.003537       
   LBFGS    68      4    0.076220    0.013015   0.002583  26.1496    0.013505    0.003716       
   LBFGS    69      4    0.071944    0.033706   0.005526  26.2776    0.014253    0.005166       
   LBFGS    70      4    0.067491    0.018742   0.003901  26.3851    0.015441    0.004929       
   LBFGS    71      4    0.061275    0.024915   0.004767  26.5280    0.016302    0.005042       
   LBFGS    72      4    0.059160    0.036131   0.005339  26.4944    0.016325    0.004781       
   LBFGS    73      4    0.057297    0.012606   0.002859  26.5066    0.016939    0.004600       
   LBFGS    74      4    0.053552    0.015761   0.003013  26.5744    0.017670    0.004607       
   LBFGS    75      4    0.048193    0.025099   0.003866  26.7078    0.018218    0.004647       
   LBFGS    76      4    0.046282    0.034966   0.004713  26.7211    0.017412    0.004699       
   LBFGS    77      4    0.044447    0.022748   0.003628  26.7571    0.017181    0.004564       
   LBFGS    78      4    0.036747    0.024049   0.003219  26.9648    0.016513    0.004301       
   LBFGS    79      4    0.034647    0.016599   0.002872  26.9944    0.016416    0.004158       
   LBFGS    80      4    0.031596    0.021014   0.003085  27.0879    0.015730    0.004038       
   LBFGS    81      4    0.030182    0.032832   0.004037  27.0982    0.014566    0.003857       
   LBFGS    82      4    0.028762    0.026103   0.003687  27.1265    0.013584    0.003763       
   LBFGS    83      4    0.023592    0.024900   0.003767  27.2896    0.010351    0.003488       
   LBFGS    84      4    0.022137    0.046398   0.005336  27.3494    0.010704    0.003306       
   LBFGS    85      4    0.021310    0.008039   0.002194  27.3855    0.010455    0.003218       
   LBFGS    86      4    0.019995    0.020856   0.002908  27.4482    0.009970    0.003110       
   LBFGS    87      4    0.016036    0.048875   0.005324  27.6577    0.008336    0.002767       
   LBFGS    88      4    0.015661    0.022480   0.002946  27.6521    0.008145    0.002623       
   LBFGS    89      4    0.015316    0.018672   0.002696  27.6555    0.007885    0.002583       
   LBFGS    90      4    0.014005    0.018480   0.002855  27.7104    0.007207    0.002484       
   LBFGS    91      4    0.013369    0.028884   0.003721  27.7625    0.006990    0.002456       
   LBFGS    92      4    0.012662    0.033851   0.003929  27.8314    0.006800    0.002437       
   LBFGS    93      4    0.010739    0.041796   0.004635  28.0660    0.006332    0.002462       
   LBFGS    94      4    0.010337    0.036765   0.004438  28.0710    0.006425    0.002271       
   LBFGS    95      4    0.009986    0.029298   0.003589  28.0876    0.006425    0.002237       
   LBFGS    96      4    0.009008    0.023815   0.002865  28.1675    0.006244    0.002141       

Possible intermediate minimum found at image(s): 1 
  => have a look at the .interp file.
  => it is often a good idea to divide the path calculation into smaller fragments. 

   LBFGS    97      4    0.008562    0.032945   0.003910  28.2364    0.006066    0.002091       
   LBFGS    98      4    0.008421    0.011450   0.001877  28.2500    0.006040    0.002053       
   LBFGS    99      4    0.007715    0.024939   0.003148  28.3333    0.005880    0.002026       
   LBFGS   100      4    0.005939    0.068493   0.007760  28.5752    0.005503    0.002080       
   LBFGS   101      4    0.005781    0.009655   0.001792  28.5809    0.005468    0.001927       
   LBFGS   102      4    0.005616    0.011288   0.001760  28.5969    0.005437    0.001906       
   LBFGS   103      4    0.004634    0.019436   0.002365  28.7224    0.005259    0.001876       
   LBFGS   104      4    0.004250    0.032483   0.003639  28.7868    0.005174    0.001839       
   LBFGS   105      4    0.003908    0.026971   0.003285  28.8450    0.005100    0.001833       
   LBFGS   106      4    0.002903    0.024324   0.002869  29.0203    0.004899    0.001804       
   LBFGS   107      4    0.002684    0.018463   0.002201  29.0523    0.004855    0.001770       
   LBFGS   108      4    0.002453    0.016853   0.002158  29.0914    0.004809    0.001758       
   LBFGS   109      4    0.001417    0.017401   0.002238  29.2843    0.004583    0.001728       
   LBFGS   110      4    0.001146    0.022460   0.002759  29.3384    0.004505    0.001701       
   LBFGS   111      4    0.000888    0.021014   0.002649  29.3902    0.004440    0.001692       
   LBFGS   112      4    -0.000160    0.021017   0.002602  29.6143    0.004210    0.001713       
   LBFGS   113      4    -0.000447    0.030875   0.003469  29.7136    0.004188    0.001640       
   LBFGS   114      4    -0.000745    0.028670   0.003391  29.8322    0.004154    0.001654       
   LBFGS   115      4    -0.001213    0.029038   0.003421  30.0279    0.004082    0.001667       
   LBFGS   116      4    -0.001403    0.022976   0.002754  30.1038    0.004029    0.001604       
   LBFGS   117      4    -0.001572    0.020103   0.002518  30.1717    0.003987    0.001591       
   LBFGS   118      4    -0.002075    0.016830   0.002613  30.3827    0.003874    0.001610       
   LBFGS   119      4    -0.002441    0.042873   0.005343  30.5173    0.003839    0.001565       
   LBFGS   120      4    -0.002835    0.049161   0.006643  30.6874    0.003793    0.001641       
   LBFGS   121      4    -0.002835    0.049163   0.006643  30.6874    0.003793    0.001641       
   LBFGS   122      4    -0.002998    0.030914   0.004660  30.7412    0.003747    0.001543       
   LBFGS   123      4    -0.003132    0.027449   0.003987  30.7908    0.003712    0.001524       
   LBFGS   124      4    -0.003573    0.023082   0.002913  30.9786    0.003617    0.001514       
   LBFGS   125      4    -0.003878    0.041272   0.004972  31.1091    0.003572    0.001492       
   LBFGS   126      4    -0.004202    0.040849   0.004793  31.2649    0.003523    0.001492       
   LBFGS   127      4    -0.004887    0.041727   0.005038  31.6050    0.003399    0.001440       
   LBFGS   128      4    -0.004979    0.013267   0.001831  31.6452    0.003377    0.001435       
   LBFGS   129      4    -0.005078    0.013130   0.001971  31.6954    0.003355    0.001430       
   LBFGS   130      4    -0.005773    0.016253   0.002603  32.0689    0.003210    0.001401       
   LBFGS   131      4    -0.005942    0.023079   0.003092  32.1628    0.003188    0.001393       
   LBFGS   132      4    -0.006108    0.020977   0.002987  32.2563    0.003255    0.001387       
   LBFGS   133      4    -0.006790    0.024770   0.002781  32.6476    0.003588    0.001365       
   LBFGS   134      4    -0.006919    0.021321   0.002469  32.7150    0.003673    0.001361       
   LBFGS   135      4    -0.007042    0.019766   0.002371  32.7809    0.003757    0.001359       
   LBFGS   136      4    -0.007711    0.022108   0.002244  33.1485    0.004293    0.001355       
   LBFGS   137      4    -0.007863    0.027416   0.002593  33.2300    0.004463    0.001358       
   LBFGS   138      4    -0.008017    0.027238   0.002560  33.3111    0.004642    0.001363       
   LBFGS   139      4    -0.008785    0.024127   0.002976  33.7117    0.005716    0.001422       
   LBFGS   140      4    -0.008892    0.012570   0.001658  33.7628    0.005920    0.001435       
   LBFGS   141      4    -0.009014    0.012195   0.001776  33.8235    0.006139    0.001452       
   LBFGS   142      4    -0.009935    0.018780   0.002515  34.2837    0.007698    0.001609       
   LBFGS   143      4    -0.010117    0.016462   0.002171  34.3617    0.008013    0.001646       
   LBFGS   144      4    -0.010280    0.013168   0.001836  34.4318    0.008312    0.001686       
   LBFGS   145      4    -0.011448    0.013387   0.002122  34.9244    0.010255    0.001975       
   LBFGS   146      4    -0.011782    0.015416   0.002076  35.0426    0.010931    0.002061       
   LBFGS   147      4    -0.012149    0.016214   0.002063  35.1658    0.011533    0.002161       
   LBFGS   148      4    -0.013867    0.022055   0.002684  35.7185    0.014054    0.002626       
   LBFGS   149      4    -0.014355    0.009547   0.001548  35.8297    0.014791    0.002767       
   LBFGS   150      4    -0.014934    0.009839   0.001600  35.9530    0.015685    0.002946       
   LBFGS   151      4    -0.017694    0.012601   0.002633  36.5068    0.016923    0.003286       
   LBFGS   152      4    -0.018606    0.013006   0.001940  36.5822    0.016749    0.003238       
Warning: path is strictly decreasing in energy   LBFGS   153      4    -0.019473    0.008489   0.001690  36.6520    0.015914    0.003130       
Warning: path is strictly decreasing in energy   LBFGS   154      4    -0.021716    0.018960   0.002790  36.8821    0.006507    0.001939       
Warning: path is strictly decreasing in energy   LBFGS   155      4    -0.021924    0.014471   0.001757  36.9057    0.005249    0.001773       
Warning: path is strictly decreasing in energy   LBFGS   156      4    -0.022103    0.007564   0.001269  36.9298    0.004161    0.001668       
Warning: path is strictly decreasing in energy   LBFGS   157      4    -0.022842    0.019432   0.002822  37.0850    0.004242    0.001603       
Warning: path is strictly decreasing in energy   LBFGS   158      4    -0.023132    0.027274   0.003895  37.2575    0.010204    0.002361       
Warning: path is strictly decreasing in energy   LBFGS   159      4    -0.023415    0.018860   0.001960  37.2625    0.006810    0.001818       
Warning: path is strictly decreasing in energy   LBFGS   160      4    -0.023606    0.004782   0.000999  37.2716    0.004339    0.001529       
Warning: path is strictly decreasing in energy   LBFGS   161      4    -0.023916    0.008892   0.001642  37.3038    0.003713    0.001304       
Warning: path is strictly decreasing in energy   LBFGS   162      4    -0.024190    0.024009   0.003078  37.4096    0.007453    0.001934       
Warning: path is strictly decreasing in energy   LBFGS   163      4    -0.024420    0.016712   0.001925  37.4432    0.005849    0.001583       
   LBFGS   164      4    -0.024587    0.008049   0.001087  37.4774    0.004330    0.001381       
   LBFGS   165      4    -0.024935    0.013342   0.001832  37.5979    0.003230    0.001273       
   LBFGS   166      4    -0.025051    0.022353   0.003128  37.8214    0.009816    0.002477       
   LBFGS   167      4    -0.025394    0.019170   0.001993  37.8340    0.005706    0.001671       
   LBFGS   168      4    -0.025584    0.006324   0.001045  37.8535    0.003274    0.001257       
   LBFGS   169      4    -0.025824    0.007204   0.001485  37.9291    0.002919    0.001240       
   LBFGS   170      4    -0.025853    0.020224   0.002687  38.1130    0.008306    0.002235       
   LBFGS   171      4    -0.026225    0.020975   0.002180  38.1769    0.006019    0.001579       
   LBFGS   172      4    -0.026433    0.008644   0.001051  38.2381    0.003795    0.001215       
   LBFGS   173      4    -0.026656    0.011009   0.001544  38.3878    0.002766    0.001213       
   LBFGS   174      4    -0.026485    0.017892   0.002790  38.7068    0.011836    0.002995       
   LBFGS   175      4    -0.026988    0.020381   0.002097  38.7257    0.005996    0.001757       
   LBFGS   176      4    -0.027207    0.010062   0.001188  38.7529    0.003377    0.001138       
   LBFGS   177      4    -0.027358    0.005786   0.001280  38.8835    0.004683    0.001420       
   LBFGS   178      4    -0.027132    0.017286   0.002386  39.1409    0.009684    0.002631       
   LBFGS   179      4    -0.027697    0.023478   0.002333  39.2301    0.006510    0.001662       
   LBFGS   180      4    -0.027957    0.009830   0.001056  39.3148    0.003248    0.001063       
   LBFGS   181      4    -0.028065    0.008397   0.001346  39.4904    0.004275    0.001357       
   LBFGS   182      4    -0.027591    0.014944   0.002482  39.8528    0.014293    0.003571       
   LBFGS   183      4    -0.028317    0.020688   0.002146  39.8732    0.006012    0.001793       
   LBFGS   184      4    -0.028558    0.010984   0.001222  39.9047    0.003368    0.001001       
   LBFGS   185      4    -0.028566    0.006164   0.001107  40.0623    0.006124    0.001658       
   LBFGS   186      4    -0.028137    0.014953   0.002178  40.3584    0.010785    0.002956       
   LBFGS   187      4    -0.028866    0.023610   0.002412  40.4603    0.006887    0.001741       
   LBFGS   188      4    -0.029154    0.010898   0.001111  40.5549    0.002839    0.000929       
   LBFGS   189      4    -0.029139    0.006397   0.001185  40.7565    0.006017    0.001638       
   LBFGS   190      4    -0.028498    0.014715   0.002299  41.1283    0.015551    0.003884       
   LBFGS   191      4    -0.029358    0.019566   0.002114  41.1504    0.005908    0.001797       
   LBFGS   192      4    -0.029605    0.010635   0.001195  41.1848    0.003212    0.000914       
   LBFGS   193      4    -0.029512    0.005861   0.000991  41.3576    0.006651    0.001800       

Possible intermediate minimum found at image(s): 2 
  => have a look at the .interp file.
  => it is often a good idea to divide the path calculation into smaller fragments. 

   LBFGS   194      4    -0.028951    0.013548   0.002049  41.6764    0.011352    0.003164       
   LBFGS   195      4    -0.029766    0.022405   0.002334  41.7812    0.007027    0.001783       
   LBFGS   196      4    -0.030066    0.010958   0.001120  41.8824    0.002328    0.000797       
   LBFGS   197      4    -0.029943    0.006432   0.001076  42.1005    0.006886    0.001854       
   LBFGS   198      4    -0.029228    0.014445   0.002115  42.4725    0.015924    0.003995       
   LBFGS   199      4    -0.030170    0.019177   0.002113  42.4978    0.005350    0.001703       
   LBFGS   200      4    -0.030399    0.010009   0.001126  42.5363    0.002929    0.000829       
   LBFGS   201      4    -0.030226    0.005623   0.000933  42.7081    0.006954    0.001887       
   LBFGS   202      4    -0.029557    0.012908   0.002014  43.0391    0.011710    0.003335       
   LBFGS   203      4    -0.030417    0.021609   0.002292  43.1405    0.007240    0.001858       
   LBFGS   204      4    -0.030726    0.010659   0.001155  43.2370    0.002569    0.000773       
   LBFGS   205      4    -0.030544    0.006385   0.000990  43.4682    0.006995    0.001957       
   LBFGS   206      4    -0.029793    0.014149   0.001994  43.8342    0.015735    0.003995       
   LBFGS   207      4    -0.030761    0.019593   0.002090  43.8627    0.004981    0.001649       
   LBFGS   208      4    -0.030980    0.009987   0.001078  43.9040    0.002680    0.000771       
   LBFGS   209      4    -0.030756    0.005616   0.000895  44.0765    0.007178    0.001949       
   LBFGS   210      4    -0.030029    0.012815   0.001949  44.4053    0.011781    0.003438       
   LBFGS   211      4    -0.030924    0.022296   0.002267  44.5049    0.007111    0.001850       
   LBFGS   212      4    -0.031222    0.011225   0.001155  44.5974    0.002442    0.000717       
   LBFGS   213      4    -0.030991    0.006215   0.000946  44.8271    0.007006    0.002021       
   LBFGS   214      4    -0.030238    0.014208   0.001913  45.1716    0.015224    0.003938       
   LBFGS   215      4    -0.031193    0.019901   0.002050  45.2008    0.004824    0.001638       
   LBFGS   216      4    -0.031410    0.010316   0.001072  45.2418    0.002484    0.000721       
   LBFGS   217      4    -0.031143    0.005682   0.000876  45.4150    0.007312    0.002022       
   LBFGS   218      4    -0.030407    0.012501   0.001840  45.7177    0.011643    0.003486       
   LBFGS   219      4    -0.031321    0.022177   0.002179  45.8161    0.006776    0.001790       
   LBFGS   220      4    -0.031602    0.011211   0.001120  45.9118    0.001767    0.000595       

                                .--------------------.
          ----------------------| CI-NEB convergence |-------------------------
          Item                value                   Tolerance       Converged
          ---------------------------------------------------------------------
          RMS(Fp)             0.0011196271            0.0100000000      YES
          MAX(|Fp|)           0.0112105144            0.0200000000      YES
          RMS(FCI)            0.0005950433            0.0010000000      YES
          MAX(|FCI|)          0.0017670800            0.0020000000      YES
          ---------------------------------------------------------------------

The elastic band and climbing image have converged successfully to a MEP in 220 iterations!


                    *********************H U R R A Y*********************
                    ***        THE NEB OPTIMIZATION HAS CONVERGED     ***
                    *****************************************************



---------------------------------------------------------------
                         PATH SUMMARY              
---------------------------------------------------------------
All forces in Eh/Bohr.

Image Dist.(Ang.)    E(Eh)   dE(kcal/mol)  max(|Fp|)  RMS(Fp)
  0     0.000    -990.25962      0.00       0.05990   0.01756 <= CI
  1     2.628    -990.27466     -9.44       0.01121   0.00232
  2     5.191    -990.27741    -11.16       0.00993   0.00220
  3     7.659    -990.26404     -2.78       0.00186   0.00059
  4    10.035    -990.29122    -19.83       0.00171   0.00059
  5    11.913    -990.30353    -27.55       0.00142   0.00056
  6    14.122    -990.30235    -26.82       0.00118   0.00046
  7    16.968    -990.30392    -27.80       0.00096   0.00031
  8    20.836    -990.30398    -27.84       0.00061   0.00028
  9    24.295    -990.30550    -28.79       0.00421   0.00126

Straight line distance between images along the path:
        D( 0- 1) =   2.6275 Ang.
        D( 1- 2) =   2.5634 Ang.
        D( 2- 3) =   2.4683 Ang.
        D( 3- 4) =   2.3754 Ang.
        D( 4- 5) =   1.8781 Ang.
        D( 5- 6) =   2.2093 Ang.
        D( 6- 7) =   2.8458 Ang.
        D( 7- 8) =   3.8684 Ang.
        D( 8- 9) =   3.4593 Ang.

---------------------------------------------------------------
               INFORMATION ABOUT SADDLE POINT     
---------------------------------------------------------------

Climbing image                            ....  0 
Energy                                    ....  -990.25961813 Eh
Max. abs. force                           ....  6.0044e-02 Eh/Bohr

-----------------------------------------
  SADDLE POINT (ANGSTROEM)
-----------------------------------------
C      1.049825     1.757818    -1.730978 
N      2.166167     1.587960    -1.104762 
C      2.244862     1.595614     0.214649 
C      1.135769     1.783648     0.992177 
C     -0.077225     1.968728     0.358596 
C     -0.146107     1.959005    -1.007311 
N     -1.408922     2.152441    -1.672947 
O     -1.489351     2.147711    -2.918311 
O     -2.420191     2.325305    -0.907792 
F      1.054877     1.738090    -3.080824 
H      3.227127     1.444229     0.648172 
H      1.300136     1.771665     2.041929 
H     -1.004776     2.123750     0.826052 
C     -1.161211    -4.975146     1.549911 
H     -1.036378    -5.922825     1.018628 
H     -2.203836    -4.877749     1.864868 
H     -0.519849    -4.978648     2.435697 
S     -0.710918    -3.601596     0.472244 

-----------------------------------------
  FORCES (Eh/Bohr)
-----------------------------------------
C     -0.016702     0.002485     0.006726 
N      0.019712    -0.003495    -0.036162 
C     -0.000102    -0.000416     0.000009 
C      0.000014     0.000008    -0.000044 
C      0.007052    -0.001180    -0.000406 
C      0.018332    -0.003219    -0.033371 
N     -0.060044     0.009669    -0.001628 
O      0.002864     0.000317     0.054213 
O      0.048706    -0.008469    -0.046611 
F      0.006593    -0.000834     0.018415 
H      0.000008     0.000093    -0.000004 
H     -0.008596     0.001639     0.016670 
H     -0.017945     0.003134     0.021975 
C     -0.000103    -0.001509     0.001245 
H     -0.001533    -0.002227     0.003649 
H      0.000346    -0.003862     0.002413 
H     -0.002361    -0.003666     0.001678 
S      0.003707     0.011783    -0.009058 

-----------------------------------------
  UNIT TANGENT
-----------------------------------------
C     -0.046809    -0.249446     0.091389 
N     -0.024201    -0.213709     0.065613 
C     -0.004832    -0.041529     0.039782 
C      0.018326     0.092709     0.018611 
C      0.006210     0.050131     0.030558 
C     -0.019400    -0.125173     0.056038 
N     -0.037555    -0.164128     0.065425 
O     -0.036255    -0.243579     0.082882 
O     -0.013025    -0.118342     0.038055 
F     -0.076190    -0.426025     0.133701 
H     -0.001025    -0.011970     0.039273 
H      0.013966     0.234282     0.003328 
H      0.032862     0.150297     0.046571 
C      0.042758     0.208802    -0.157859 
H      0.000672     0.294588    -0.268649 
H      0.068000     0.139670    -0.092034 
H      0.085840     0.088681    -0.218802 
S     -0.009342     0.334739     0.026116 
 => Unit tangent is an approximation to the TS mode at the saddle point
No barrier was found. Skipping NEB-TS run here.
----------
STATISTICS
----------

For the individual parts of the NEB, NEB-CI or NEB-TS run:

Number of iterations:
     NEB                               ... 221  100.0%
Number of SCF / gradient calculations:
     NEB                               ... 2298  100.0%

----------
 TIMINGS
----------

For the individual parts of the NEB, NEB-CI or NEB-TS run:

Total                                  ...    64463.581 sec
NEB                                    ...    64463.581 sec  100.0%

[file orca_main/run.cpp, line 12281]: ORCA finished with error return - aborting the run
