
                                 *****************
                                 * O   R   C   A *
                                 *****************

                                            #,                                       
                                            ###                                      
                                            ####                                     
                                            #####                                    
                                            ######                                   
                                           ########,                                 
                                     ,,################,,,,,                         
                               ,,#################################,,                 
                          ,,##########################################,,             
                       ,#########################################, ''#####,          
                    ,#############################################,,   '####,        
                  ,##################################################,,,,####,       
                ,###########''''           ''''###############################       
              ,#####''   ,,,,##########,,,,          '''####'''          '####       
            ,##' ,,,,###########################,,,                        '##       
           ' ,,###''''                  '''############,,,                           
         ,,##''                                '''############,,,,        ,,,,,,###''
      ,#''                                            '''#######################'''  
     '                                                          ''''####''''         
             ,#######,   #######,   ,#######,      ##                                
            ,#'     '#,  ##    ##  ,#'     '#,    #''#        ######   ,####,        
            ##       ##  ##   ,#'  ##            #'  '#       #        #'  '#        
            ##       ##  #######   ##           ,######,      #####,   #    #        
            '#,     ,#'  ##    ##  '#,     ,#' ,#      #,         ##   #,  ,#        
             '#######'   ##     ##  '#######'  #'      '#     #####' # '####'        



                  #######################################################
                  #                        -***-                        #
                  #          Department of theory and spectroscopy      #
                  #    Directorship and core code : Frank Neese         #
                  #        Max Planck Institute fuer Kohlenforschung    #
                  #                Kaiser Wilhelm Platz 1               #
                  #                 D-45470 Muelheim/Ruhr               #
                  #                      Germany                        #
                  #                                                     #
                  #                  All rights reserved                #
                  #                        -***-                        #
                  #######################################################


                         Program Version 5.0.4 -  RELEASE  -


 With contributions from (in alphabetic order):
   Daniel Aravena         : Magnetic Suceptibility
   Michael Atanasov       : Ab Initio Ligand Field Theory (pilot matlab implementation)
   Alexander A. Auer      : GIAO ZORA, VPT2 properties, NMR spectrum
   Ute Becker             : Parallelization
   Giovanni Bistoni       : ED, misc. LED, open-shell LED, HFLD
   Martin Brehm           : Molecular dynamics
   Dmytro Bykov           : SCF Hessian
   Vijay G. Chilkuri      : MRCI spin determinant printing, contributions to CSF-ICE
   Dipayan Datta          : RHF DLPNO-CCSD density
   Achintya Kumar Dutta   : EOM-CC, STEOM-CC
   Dmitry Ganyushin       : Spin-Orbit,Spin-Spin,Magnetic field MRCI
   Miquel Garcia          : C-PCM and meta-GGA Hessian, CC/C-PCM, Gaussian charge scheme
   Yang Guo               : DLPNO-NEVPT2, F12-NEVPT2, CIM, IAO-localization
   Andreas Hansen         : Spin unrestricted coupled pair/coupled cluster methods
   Benjamin Helmich-Paris : MC-RPA, TRAH-SCF, COSX integrals
   Lee Huntington         : MR-EOM, pCC
   Robert Izsak           : Overlap fitted RIJCOSX, COSX-SCS-MP3, EOM
   Marcus Kettner         : VPT2
   Christian Kollmar      : KDIIS, OOCD, Brueckner-CCSD(T), CCSD density, CASPT2, CASPT2-K
   Simone Kossmann        : Meta GGA functionals, TD-DFT gradient, OOMP2, MP2 Hessian
   Martin Krupicka        : Initial AUTO-CI
   Lucas Lang             : DCDCAS
   Marvin Lechner         : AUTO-CI (C++ implementation), FIC-MRCC
   Dagmar Lenk            : GEPOL surface, SMD
   Dimitrios Liakos       : Extrapolation schemes; Compound Job, initial MDCI parallelization
   Dimitrios Manganas     : Further ROCIS development; embedding schemes
   Dimitrios Pantazis     : SARC Basis sets
   Anastasios Papadopoulos: AUTO-CI, single reference methods and gradients
   Taras Petrenko         : DFT Hessian,TD-DFT gradient, ASA, ECA, R-Raman, ABS, FL, XAS/XES, NRVS
   Peter Pinski           : DLPNO-MP2, DLPNO-MP2 Gradient
   Christoph Reimann      : Effective Core Potentials
   Marius Retegan         : Local ZFS, SOC
   Christoph Riplinger    : Optimizer, TS searches, QM/MM, DLPNO-CCSD(T), (RO)-DLPNO pert. Triples
   Tobias Risthaus        : Range-separated hybrids, TD-DFT gradient, RPA, STAB
   Michael Roemelt        : Original ROCIS implementation
   Masaaki Saitow         : Open-shell DLPNO-CCSD energy and density
   Barbara Sandhoefer     : DKH picture change effects
   Avijit Sen             : IP-ROCIS
   Kantharuban Sivalingam : CASSCF convergence, NEVPT2, FIC-MRCI
   Bernardo de Souza      : ESD, SOC TD-DFT
   Georgi Stoychev        : AutoAux, RI-MP2 NMR, DLPNO-MP2 response
   Willem Van den Heuvel  : Paramagnetic NMR
   Boris Wezisla          : Elementary symmetry handling
   Frank Wennmohs         : Technical directorship


 We gratefully acknowledge several colleagues who have allowed us to
 interface, adapt or use parts of their codes:
   Stefan Grimme, W. Hujo, H. Kruse, P. Pracht,  : VdW corrections, initial TS optimization,
                  C. Bannwarth, S. Ehlert          DFT functionals, gCP, sTDA/sTD-DF
   Ed Valeev, F. Pavosevic, A. Kumar             : LibInt (2-el integral package), F12 methods
   Garnet Chan, S. Sharma, J. Yang, R. Olivares  : DMRG
   Ulf Ekstrom                                   : XCFun DFT Library
   Mihaly Kallay                                 : mrcc  (arbitrary order and MRCC methods)
   Jiri Pittner, Ondrej Demel                    : Mk-CCSD
   Frank Weinhold                                : gennbo (NPA and NBO analysis)
   Christopher J. Cramer and Donald G. Truhlar   : smd solvation model
   Lars Goerigk                                  : TD-DFT with DH, B97 family of functionals
   V. Asgeirsson, H. Jonsson                     : NEB implementation
   FAccTs GmbH                                   : IRC, NEB, NEB-TS, DLPNO-Multilevel, CI-OPT
                                                   MM, QMMM, 2- and 3-layer-ONIOM, Crystal-QMMM,
                                                   LR-CPCM, SF, NACMEs, symmetry and pop. for TD-DFT,
                                                   nearIR, NL-DFT gradient (VV10), updates on ESD,
                                                   ML-optimized integration grids
   S Lehtola, MJT Oliveira, MAL Marques          : LibXC Library
   Liviu Ungur et al                             : ANISO software


 Your calculation uses the libint2 library for the computation of 2-el integrals
 For citations please refer to: http://libint.valeyev.net

 Your ORCA version has been built with support for libXC version: 5.1.0
 For citations please refer to: https://tddft.org/programs/libxc/

 This ORCA versions uses:
   CBLAS   interface :  Fast vector & matrix operations
   LAPACKE interface :  Fast linear algebra routines
   SCALAPACK package :  Parallel linear algebra routines
   Shared memory     :  Shared parallel matrices
   BLAS/LAPACK       :  OpenBLAS 0.3.15  USE64BITINT DYNAMIC_ARCH NO_AFFINITY SkylakeX SINGLE_THREADED
        Core in use  :  SkylakeX
   Copyright (c) 2011-2014, The OpenBLAS Project




***************************************
The coordinates will be read from file: reactants.xyz
***************************************


Your calculation utilizes the SMD solvation module
Please cite in your paper:
A.V. Marenich, C.J. Cramer, D.G. Truhlar J. Phys. Chem. B, 113, (2009), 6378 

XCFun DFT library Copyright 2009-2010 Ulf Ekstrom and contributors.
See http://admol.org/xcfun for more information.
This is free software; see the source code for copying conditions.
There is ABSOLUTELY NO WARRANTY; not even for MERCHANTABILITY or FITNESS FOR A PARTICULAR PURPOSE.
For details see the documentation.
Scientific users of this library should cite U. Ekstrom, L. Visscher, R. Bast, A. J. Thorvaldsen and K. Ruud;
J.Chem.Theor.Comp. 2010, DOI: 10.1021/ct100117s
XCFun Version 0.99 

================================================================================

----- Orbital basis set information -----
Your calculation utilizes the basis: 6-311++G**
   H, Li - Ne  : R. Krishnan, J. S. Binkley, R. Seeger and J. A. Pople, J. Chem. Phys. 72, 650 (1980).
   Na - Ar     : A. D. McLean and G. S. Chandler J. Chem. Phys. 72, 5639, (1980).
   K  - Ca     : J.-P. Blaudeau, M. P. McGrath, L. A. Curtiss and L. Radom, J. Chem. Phys. 107, 5016 (1997).
   Ga - Kr     : L. A. Curtiss, M. P. McGrath, J.-P. Blandeau, N. E. Davis, R. C. Binning and L. Radom, J. Chem. Phys. 103, 6104 (1995).
   Pol./Diff.
   H, Li - Cl  : T. Clark, J. Chandrasekhar and P. v. R. Schleyer, J. Comp. Chem. 4, 294 (1983).
   H - Ne      : M. J. Frisch, J. A. Pople and J. S. Binkley, J. Chem. Phys. 80, 3265 (1984).

----- AuxJ basis set information -----
Your calculation utilizes the auxiliary basis: def2/J
   F. Weigend, Phys. Chem. Chem. Phys. 8, 1057 (2006).

================================================================================
                                        WARNINGS
                       Please study these warnings very carefully!
================================================================================


WARNING: Geometry Optimization
  ===> : Switching off AutoStart
         For restart on a previous wavefunction, please use MOREAD

INFO   : the flag for use of the SHARK integral package has been found!

================================================================================
                                       INPUT FILE
================================================================================
NAME = structure_opt.inp
|  1> !wb97x 6-311++G** OPT CPCM(WATER)
|  2> %maxcore  3500
|  3> %pal
|  4> nprocs 24
|  5> end
|  6> %cpcm
|  7> smd true
|  8> SMDsolvent "water"
|  9> end
| 10> %geom
| 11> ConstrainFragments {1} end
| 12> ConstrainFragments {4} end
| 13> ConnectFragments
| 14> { 1 2 C 5 7 }
| 15> { 1 2 C 0 9 }
| 16> { 2 3 C 13 5 }
| 17> { 3 4 C 13 17 }
| 18> end
| 19> end
| 20> * XYZfile -1 1 reactants.xyz
| 21> %geom
| 22> Fragments
| 23> 1 {0:5} end
| 24> 2 {6:12} end
| 25> 3 {13:16} end
| 26> 4 {17} end
| 27> end
| 28> end
| 29> 
| 30>                          ****END OF INPUT****
================================================================================

                       *****************************
                       * Geometry Optimization Run *
                       *****************************

Geometry optimization settings:
Update method            Update   .... BFGS
Choice of coordinates    CoordSys .... Z-matrix Internals
Initial Hessian          InHess   .... Almoef's Model

Convergence Tolerances:
Energy Change            TolE     ....  5.0000e-06 Eh
Max. Gradient            TolMAXG  ....  3.0000e-04 Eh/bohr
RMS Gradient             TolRMSG  ....  1.0000e-04 Eh/bohr
Max. Displacement        TolMAXD  ....  4.0000e-03 bohr
RMS Displacement         TolRMSD  ....  2.0000e-03 bohr
Strict Convergence                ....  False
------------------------------------------------------------------------------
                        ORCA OPTIMIZATION COORDINATE SETUP
------------------------------------------------------------------------------

The optimization will be done in new redundant internal coordinates
Making redundant internal coordinates   ...  (new redundants) done
Evaluating the initial hessian          ...  (Almloef) done
Evaluating the coordinates              ...  done
Calculating the B-matrix                .... done
Calculating the G-matrix                .... done
Diagonalizing the G-matrix              .... done
Imposing constraints:
 Iter   0:  RMS(Cart)=    0.0000000000 RMS(Int)=    0.0000000000
CONVERGED
Small eigenvalue found = 1.158e-02
Small eigenvalue found = 1.792e-02
The first mode is                       ....   66
The number of degrees of freedom        ....   48
Storing new coordinates                 .... done

    -----------------------------------------------------------------
                    Redundant Internal Coordinates


    -----------------------------------------------------------------
         Definition                    Initial Value    Approx d2E/dq
    -----------------------------------------------------------------
      1. B(N   1,C   0)                  1.3611         0.622347   
      2. B(C   2,N   1)                  1.3582         0.628875   
      3. B(C   3,C   2)                  1.3949         0.613658   
      4. B(C   4,C   3)                  1.3934         0.616971   
      5. B(C   5,C   0)                  1.4122         0.575774   
      6. B(C   5,C   4)                  1.4061         0.588917   
      7. B(O   7,C   5)                  2.3435         0.016853 C 
      8. B(O   7,N   6)                  1.2480         0.844503   
      9. B(O   8,N   6)                  1.3769         0.525866   
     10. B(F   9,C   0)                  1.3500         0.602260 C 
     11. B(F   9,N   6)                  2.8678         0.002044   
     12. B(F   9,O   7)                  2.5821         0.005837   
     13. B(H  11,H  10)                  2.4818         0.000415   
     14. B(H  12,O   8)                  2.5152         0.001717   
     15. B(H  12,H  11)                  2.4663         0.000439   
     16. B(H  12,N   6)                  2.7029         0.000861   
     17. B(C  13,O   8)                  5.8338         0.000000 C 
     18. B(H  14,C  13)                  1.0940         0.354817   
     19. B(H  15,C  13)                  1.0928         0.356350   
     20. B(H  16,C  13)                  1.0945         0.354170   
     21. B(S  17,C  13)                  1.8029         0.369616 C 
     22. A(N   1,C   0,C   5)          120.1571         0.425830   
     23. A(N   1,C   0,F   9)          118.6704         0.424592 C 
     24. A(C   5,C   0,F   9)          121.1725         0.421471 C 
     25. A(C   0,N   1,C   2)          121.9524         0.429796   
     26. A(N   1,C   2,C   3)          120.0262         0.431531   
     27. A(C   2,C   3,C   4)          119.3498         0.432882   
     28. A(C   3,C   4,C   5)          120.4718         0.429694   
     29. A(C   0,C   5,O   7)           94.5313         0.237820 C 
     30. A(C   0,C   5,C   4)          118.0425         0.424407   
     31. A(C   4,C   5,O   7)          147.4261         0.238582 C 
     32. A(F   9,N   6,H  12)          110.0144         0.106848   
     33. A(O   8,N   6,H  12)           67.2752         0.152046   
     34. A(O   7,N   6,H  12)          174.2234         0.159181   
     35. A(O   7,N   6,O   8)          118.5014         0.433822   
     36. A(O   7,N   6,F   9)           64.2090         0.186619   
     37. A(N   6,O   7,F   9)           89.9947         0.212791   
     38. A(C   5,O   7,N   6)           31.7456         0.248611 C 
     39. A(C   5,O   7,F   9)           58.2491         0.140475 C 
     40. A(N   6,O   8,H  12)           82.3972         0.162696   
     41. A(H  12,O   8,C  13)           79.3485         0.090873 C 
     42. A(N   6,O   8,C  13)          115.3548         0.096873 C 
     43. A(C   0,F   9,O   7)           86.0471         0.203997 C 
     44. A(N   6,F   9,O   7)           25.7962         0.120482   
     45. A(C   0,F   9,N   6)           60.2509         0.179684 C 
     46. A(H  10,H  11,H  12)          119.7063         0.095112   
     47. A(N   6,H  12,O   8)           30.3275         0.103999   
     48. A(N   6,H  12,H  11)          126.7169         0.097913   
     49. A(O   8,H  12,H  11)          157.0445         0.099419   
     50. A(H  14,C  13,H  15)          109.0637         0.289689   
     51. A(H  14,C  13,H  16)          108.9170         0.289411   
     52. A(H  15,C  13,H  16)          109.0180         0.289606   
     53. A(O   8,C  13,H  14)          130.8451         0.095334 C 
     54. A(O   8,C  13,S  17)           27.3158         0.096910   
     55. A(O   8,C  13,H  15)           84.8863         0.095340 C 
     56. A(O   8,C  13,H  16)          110.1753         0.095331 C 
     57. A(H  14,C  13,S  17)          109.9500         0.339393 C 
     58. A(H  15,C  13,S  17)          109.9992         0.339638 C 
     59. A(H  16,C  13,S  17)          109.8673         0.339290 C 
     60. D(C   2,N   1,C   0,C   5)     -0.1041         0.028432   
     61. D(C   2,N   1,C   0,F   9)    179.9112         0.028432 C 
     62. D(C   3,C   2,N   1,C   0)      0.1066         0.025783   
     63. D(C   4,C   3,C   2,N   1)     -0.0956         0.020965   
     64. D(C   5,C   4,C   3,C   2)      0.0854         0.021202   
     65. D(O   7,C   5,C   0,F   9)     -0.0223         0.022761 C 
     66. D(O   7,C   5,C   4,C   3)   -179.9036         0.021656 C 
     67. D(O   7,C   5,C   0,N   1)    179.9933         0.022761 C 
     68. D(C   4,C   5,C   0,N   1)      0.0896         0.022761   
     69. D(C   0,C   5,C   4,C   3)     -0.0818         0.021656   
     70. D(C   4,C   5,C   0,F   9)   -179.9260         0.022761 C 
     71. D(N   6,O   7,C   5,C   4)     -0.1099         0.001517 C 
     72. D(N   6,O   7,C   5,C   0)   -179.9521         0.001517 C 
     73. D(F   9,O   7,C   5,C   4)    179.8539         0.001517 C 
     74. D(F   9,O   7,C   5,C   0)      0.0117         0.001517 C 
     75. D(F   9,O   7,N   6,O   8)    179.9932         0.079747   
     76. D(F   9,O   7,N   6,H  12)      0.1568         0.079747   
     77. D(C   5,O   7,N   6,O   8)   -179.9761         0.079747 C 
     78. D(C   5,O   7,N   6,H  12)      0.1876         0.079747 C 
     79. D(C   5,O   7,N   6,F   9)      0.0308         0.079747 C 
     80. D(C  13,O   8,N   6,O   7)    105.6584         0.027866 C 
     81. D(C  13,O   8,N   6,H  12)    -74.3594         0.027866 C 
     82. D(H  12,O   8,N   6,O   7)   -179.9821         0.027866   
     83. D(N   6,F   9,O   7,C   5)     -0.0190         0.001503 C 
     84. D(N   6,F   9,C   0,N   1)   -179.9918         0.032536 C 
     85. D(N   6,F   9,C   0,C   5)      0.0236         0.032536 C 
     86. D(O   7,F   9,N   6,H  12)   -179.9832         0.001500   
     87. D(C   0,F   9,N   6,O   7)   -179.9922         0.001500 C 
     88. D(C   0,F   9,N   6,H  12)      0.0246         0.001500 C 
     89. D(O   7,F   9,C   0,C   5)      0.0202         0.032536 C 
     90. D(O   7,F   9,C   0,N   1)   -179.9952         0.032536 C 
     91. D(C   0,F   9,O   7,N   6)      0.0068         0.001503 C 
     92. D(C   0,F   9,O   7,C   5)     -0.0123         0.001503 C 
     93. D(O   7,F   9,O   8,H  12)   -179.9897         0.001500   
     94. D(O   7,F   9,O   8,C  13)    106.4765         0.001500 C 
     95. D(C   0,F   9,O   8,H  12)      0.0232         0.001500 C 
     96. D(C   0,F   9,O   8,C  13)    -73.5106         0.001500   
     97. D(O   8,H  12,H  11,H  10)      0.0710         0.001502   
     98. D(O   8,H  12,N   6,F   9)    179.9943         0.001501   
     99. D(H  11,H  12,N   6,O   7)     -0.1748         0.001501   
    100. D(H  11,H  12,N   6,O   8)    179.9811         0.001501   
    101. D(H  11,H  12,N   6,F   9)     -0.0245         0.001501   
    102. D(N   6,H  12,O   8,C  13)    117.6907         0.001502 C 
    103. D(H  11,H  12,O   8,N   6)     -0.0388         0.001502   
    104. D(H  11,H  12,O   8,C  13)    117.6519         0.001502 C 
    105. D(O   8,H  12,N   6,O   7)    179.8441         0.001501   
    106. D(N   6,H  12,H  11,H  10)      0.0466         0.001502   
    107. D(S  17,C  13,O   8,H  12)    -79.8170         0.001500   
    108. D(H  14,C  13,O   8,H  12)   -126.1053         0.001500 C 
    109. D(H  15,C  13,O   8,N   6)   -160.7416         0.001500 C 
    110. D(H  15,C  13,O   8,H  12)    123.0327         0.001500 C 
    111. D(H  16,C  13,O   8,N   6)     90.8570         0.001500 C 
    112. D(H  16,C  13,O   8,H  12)     14.6313         0.001500 C 
    113. D(H  14,C  13,O   8,N   6)    -49.8796         0.001500 C 
    114. D(S  17,C  13,O   8,N   6)     -3.5912         0.001500   
    -----------------------------------------------------------------

Number of atoms                         .... 18
Number of degrees of freedom            .... 114

         *************************************************************
         *                GEOMETRY OPTIMIZATION CYCLE   1            *
         *************************************************************
---------------------------------
CARTESIAN COORDINATES (ANGSTROEM)
---------------------------------
  C      0.000000    0.000000    1.820000
  N      1.178000   -0.196000    2.473000
  C      1.255000   -0.207000    3.829000
  C      0.105000   -0.016000    4.595000
  C     -1.116000    0.187000    3.955000
  C     -1.192000    0.198000    2.551000
  N     -2.456000    0.409000    1.893000
  O     -2.541000    0.423000    0.648000
  O     -3.602000    0.600000    2.632000
  F      0.000000    0.000000    0.470000
  H      2.209000   -0.366000    4.313000
  H      0.163000   -0.026000    5.676000
  H     -2.005000    0.335000    4.557000
  C     -5.762000   -4.186000    5.174000
  H     -5.980000   -5.177000    4.765000
  H     -6.691000   -3.614000    5.238000
  H     -5.344000   -4.301000    6.179000
  S     -4.582000   -3.329000    4.114000

----------------------------
CARTESIAN COORDINATES (A.U.)
----------------------------
  NO LB      ZA    FRAG     MASS         X           Y           Z
   0 C     6.0000    1    12.011    0.000000    0.000000    3.439302
   1 N     7.0000    1    14.007    2.226097   -0.370386    4.673293
   2 C     6.0000    1    12.011    2.371606   -0.391173    7.235761
   3 C     6.0000    1    12.011    0.198421   -0.030236    8.683292
   4 C     6.0000    1    12.011   -2.108934    0.353379    7.473867
   5 C     6.0000    1    12.011   -2.252554    0.374166    4.820691
   6 N     7.0000    2    14.007   -4.641167    0.772898    3.577252
   7 O     8.0000    2    15.999   -4.801794    0.799354    1.224543
   8 O     8.0000    2    15.999   -6.806794    1.133836    4.973759
   9 F     9.0000    2    18.998    0.000000    0.000000    0.888171
  10 H     1.0000    2     1.008    4.174405   -0.691640    8.150389
  11 H     1.0000    2     1.008    0.308025   -0.049133   10.726086
  12 H     1.0000    2     1.008   -3.788901    0.633058    8.611482
  13 C     6.0000    3    12.011  -10.888602   -7.910394    9.777443
  14 H     1.0000    3     1.008  -11.300562   -9.783112    9.004545
  15 H     1.0000    3     1.008  -12.644158   -6.829470    9.898385
  16 H     1.0000    3     1.008  -10.098696   -8.127712   11.676618
  17 S    16.0000    4    32.060   -8.658725   -6.290898    7.774333

----------------------------------------------
CARTESIAN COORDINATES OF FRAGMENTS (ANGSTROEM)
----------------------------------------------

 FRAGMENT 1 
  C     0.000000    0.000000    1.820000
  N     1.178000   -0.196000    2.473000
  C     1.255000   -0.207000    3.829000
  C     0.105000   -0.016000    4.595000
  C    -1.116000    0.187000    3.955000
  C    -1.192000    0.198000    2.551000

 FRAGMENT 2 
  N    -2.456000    0.409000    1.893000
  O    -2.541000    0.423000    0.648000
  O    -3.602000    0.600000    2.632000
  F     0.000000    0.000000    0.470000
  H     2.209000   -0.366000    4.313000
  H     0.163000   -0.026000    5.676000
  H    -2.005000    0.335000    4.557000

 FRAGMENT 3 
  C    -5.762000   -4.186000    5.174000
  H    -5.980000   -5.177000    4.765000
  H    -6.691000   -3.614000    5.238000
  H    -5.344000   -4.301000    6.179000

 FRAGMENT 4 
  S    -4.582000   -3.329000    4.114000

--------------------------------
INTERNAL COORDINATES (ANGSTROEM)
--------------------------------
 C      0   0   0     0.000000000000     0.00000000     0.00000000
 N      1   0   0     1.361069065110     0.00000000     0.00000000
 C      2   1   0     1.358228993948   121.95243626     0.00000000
 C      3   2   1     1.394896770374   120.02620694     0.10655554
 C      4   3   2     1.393431017309   119.34983770   359.90435571
 C      5   4   3     1.406098502951   120.47178172     0.08537773
 N      6   5   4     1.440548853736   120.30882193   180.03842131
 O      7   6   5     1.247976762604   121.13704526   179.93147861
 O      7   6   5     1.376923382037   120.36156660   359.90709941
 F      1   2   3     1.350000000000   118.67037638   179.91115691
 H      3   2   1     1.081504969938   119.86701156   179.98746005
 H      4   3   2     1.082601034546   120.19197482   179.89186186
 H      5   4   3     1.083803026384   118.91636700   180.02085854
 C      9   7   6     5.833794648426   115.35476216   285.68219372
 H     14   9   7     1.094022851681   130.84506374   310.12040222
 H     14   9   7     1.092849943954    84.88626943   199.25842874
 H     14   9   7     1.094519986113   110.17533638    90.85704693
 S     14   9   7     1.802900163625    27.31580807   356.40880080

---------------------------
INTERNAL COORDINATES (A.U.)
---------------------------
 C      0   0   0     0.000000000000     0.00000000     0.00000000
 N      1   0   0     2.572047782411     0.00000000     0.00000000
 C      2   1   0     2.566680825712   121.95243626     0.00000000
 C      3   2   1     2.635972881098   120.02620694     0.10655554
 C      4   3   2     2.633203009226   119.34983770   359.90435571
 C      5   4   3     2.657141087893   120.47178172     0.08537773
 N      6   5   4     2.722242816095   120.30882193   180.03842131
 O      7   6   5     2.358334302820   121.13704526   179.93147861
 O      7   6   5     2.602008099442   120.36156660   359.90709941
 F      1   2   3     2.551130280794   118.67037638   179.91115691
 H      3   2   1     2.043748205657   119.86701156   179.98746005
 H      4   3   2     2.045819467592   120.19197482   179.89186186
 H      5   4   3     2.048090902982   118.91636700   180.02085854
 C      9   7   6    11.024274207060   115.35476216   285.68219372
 H     14   9   7     2.067403573928   130.84506374   310.12040222
 H     14   9   7     2.065187099544    84.88626943   199.25842874
 H     14   9   7     2.068343021856   110.17533638    90.85704693
 S     14   9   7     3.406987556054    27.31580807   356.40880080

---------------------
BASIS SET INFORMATION
---------------------
There are 6 groups of distinct atoms

 Group   1 Type C   : 12s6p1d contracted to 5s4p1d pattern {63111/3111/1}
 Group   2 Type N   : 12s6p1d contracted to 5s4p1d pattern {63111/3111/1}
 Group   3 Type O   : 12s6p1d contracted to 5s4p1d pattern {63111/3111/1}
 Group   4 Type F   : 12s6p1d contracted to 5s4p1d pattern {63111/3111/1}
 Group   5 Type H   : 6s1p contracted to 4s1p pattern {3111/1}
 Group   6 Type S   : 14s10p1d contracted to 7s6p1d pattern {6311111/421111/1}

Atom   0C    basis set group =>   1
Atom   1N    basis set group =>   2
Atom   2C    basis set group =>   1
Atom   3C    basis set group =>   1
Atom   4C    basis set group =>   1
Atom   5C    basis set group =>   1
Atom   6N    basis set group =>   2
Atom   7O    basis set group =>   3
Atom   8O    basis set group =>   3
Atom   9F    basis set group =>   4
Atom  10H    basis set group =>   5
Atom  11H    basis set group =>   5
Atom  12H    basis set group =>   5
Atom  13C    basis set group =>   1
Atom  14H    basis set group =>   5
Atom  15H    basis set group =>   5
Atom  16H    basis set group =>   5
Atom  17S    basis set group =>   6
---------------------------------
AUXILIARY/J BASIS SET INFORMATION
---------------------------------
There are 6 groups of distinct atoms

 Group   1 Type C   : 12s5p4d2f1g contracted to 6s4p3d1f1g pattern {711111/2111/211/2/1}
 Group   2 Type N   : 12s5p4d2f1g contracted to 6s4p3d1f1g pattern {711111/2111/211/2/1}
 Group   3 Type O   : 12s5p4d2f1g contracted to 6s4p3d1f1g pattern {711111/2111/211/2/1}
 Group   4 Type F   : 12s5p4d2f1g contracted to 6s4p3d1f1g pattern {711111/2111/211/2/1}
 Group   5 Type H   : 5s2p1d contracted to 3s1p1d pattern {311/2/1}
 Group   6 Type S   : 14s5p5d2f1g contracted to 8s4p3d1f1g pattern {71111111/2111/311/2/1}

Atom   0C    basis set group =>   1
Atom   1N    basis set group =>   2
Atom   2C    basis set group =>   1
Atom   3C    basis set group =>   1
Atom   4C    basis set group =>   1
Atom   5C    basis set group =>   1
Atom   6N    basis set group =>   2
Atom   7O    basis set group =>   3
Atom   8O    basis set group =>   3
Atom   9F    basis set group =>   4
Atom  10H    basis set group =>   5
Atom  11H    basis set group =>   5
Atom  12H    basis set group =>   5
Atom  13C    basis set group =>   1
Atom  14H    basis set group =>   5
Atom  15H    basis set group =>   5
Atom  16H    basis set group =>   5
Atom  17S    basis set group =>   6


           ************************************************************
           *        Program running with 24 parallel MPI-processes    *
           *              working on a common directory               *
           ************************************************************
------------------------------------------------------------------------------
                           ORCA GTO INTEGRAL CALCULATION
                           -- RI-GTO INTEGRALS CHOSEN --
------------------------------------------------------------------------------
------------------------------------------------------------------------------
                   ___                                                        
                  /   \      - P O W E R E D   B Y -                         
                 /     \                                                     
                 |  |  |   _    _      __       _____    __    __             
                 |  |  |  | |  | |    /  \     |  _  \  |  |  /  |          
                  \  \/   | |  | |   /    \    | | | |  |  | /  /          
                 / \  \   | |__| |  /  /\  \   | |_| |  |  |/  /          
                |  |  |   |  __  | /  /__\  \  |    /   |      \           
                |  |  |   | |  | | |   __   |  |    \   |  |\   \          
                \     /   | |  | | |  |  |  |  | |\  \  |  | \   \       
                 \___/    |_|  |_| |__|  |__|  |_| \__\ |__|  \__/        
                                                                              
                      - O R C A' S   B I G   F R I E N D -                    
                                      &                                       
                       - I N T E G R A L  F E E D E R -                       
                                                                              
 v1 FN, 2020, v2 2021                                                         
------------------------------------------------------------------------------


Reading SHARK input file structure_opt.SHARKINP.tmp ... ok
----------------------
SHARK INTEGRAL PACKAGE
----------------------

Number of atoms                             ...     18
Number of basis functions                   ...    314
Number of shells                            ...    154
Maximum angular momentum                    ...      2
Integral batch strategy                     ... SHARK/LIBINT Hybrid
RI-J (if used) integral strategy            ... SPLIT-RIJ (Revised 2003 algorithm where possible)
Printlevel                                  ...      1
Contraction scheme used                     ... SEGMENTED contraction
Coulomb Range Separation                    ... NOT USED
Exchange Range Separation                   ... Long Range
   Mu parameter                             ...  0.300000
   Scaling (regular/separated)              ...  0.157706  0.842294
Finite Nucleus Model                        ... NOT USED
Auxiliary Coulomb fitting basis             ... AVAILABLE
   # of basis functions in Aux-J            ...    656
   # of shells in Aux-J                     ...    212
   Maximum angular momentum in Aux-J        ...      4
Auxiliary J/K fitting basis                 ... NOT available
Auxiliary Correlation fitting basis         ... NOT available
Auxiliary 'external' fitting basis          ... NOT available
Integral threshold                          ...     2.500000e-11
Primitive cut-off                           ...     2.500000e-12
Primitive pair pre-selection threshold      ...     2.500000e-12

Calculating pre-screening integrals         ... done (  0.0 sec) Dimension = 154
Organizing shell pair data                  ... done (  0.1 sec)
Shell pair information
Total number of shell pairs                 ...     11935
Shell pairs after pre-screening             ...      9382
Total number of primitive shell pairs       ...     38500
Primitive shell pairs kept                  ...     21355
          la=0 lb=0:   2894 shell pairs
          la=1 lb=0:   3852 shell pairs
          la=1 lb=1:   1323 shell pairs
          la=2 lb=0:    748 shell pairs
          la=2 lb=1:    509 shell pairs
          la=2 lb=2:     56 shell pairs

Calculating one electron integrals          ... done (  0.0 sec)
Calculating RI/J V-Matrix + Cholesky decomp.... done (  0.1 sec)
Calculating Nuclear repulsion               ... done (  0.0 sec) ENN=    706.999296964557 Eh

SHARK setup successfully completed in   1.2 seconds

Maximum memory used throughout the entire GTOINT-calculation: 18.0 MB


           ************************************************************
           *        Program running with 24 parallel MPI-processes    *
           *              working on a common directory               *
           ************************************************************
-------------------------------------------------------------------------------
                                 ORCA SCF
-------------------------------------------------------------------------------

------------
SCF SETTINGS
------------
Hamiltonian:
 Density Functional     Method          .... DFT(GTOs)
 Exchange Functional    Exchange        .... WB97X
 Correlation Functional Correlation     .... WB97X
 Gradients option       PostSCFGGA      .... off
 Hybrid DFT is turned on
   Fraction HF Exchange ScalHFX         ....  0.157706
   Scaling of DF-GGA-X  ScalDFX         ....  0.000000
   Scaling of DF-GGA-C  ScalDFC         ....  1.000000
   Scaling of DF-LDA-C  ScalLDAC        ....  1.000000
   Perturbative correction              ....  0.000000
   Density functional embedding theory  .... OFF
 Long-range corrected/Screened/Range-Separated Hybrid DFT is turned on
   Amount of maximum screened exact exchange              ....  0.842294
   Range separation parameter mu (erf(mu*r12)/r12)        ....  0.300000
 RI-approximation to the Coulomb term is turned on
   Number of AuxJ basis functions       .... 656
   RIJ-COSX (HFX calculated with COS-X)).... on


General Settings:
 Integral files         IntName         .... structure_opt
 Hartree-Fock type      HFTyp           .... RHF
 Total Charge           Charge          ....   -1
 Multiplicity           Mult            ....    1
 Number of Electrons    NEL             ....   98
 Basis Dimension        Dim             ....  314
 Nuclear Repulsion      ENuc            ....    706.9992969646 Eh

Convergence Acceleration:
 DIIS                   CNVDIIS         .... on
   Start iteration      DIISMaxIt       ....    12
   Startup error        DIISStart       ....  0.200000
   # of expansion vecs  DIISMaxEq       ....     5
   Bias factor          DIISBfac        ....   1.050
   Max. coefficient     DIISMaxC        ....  10.000
 Trust-Rad. Augm. Hess. CNVTRAH         .... auto
   Auto Start mean grad. ratio tolernc. ....  1.125000
   Auto Start start iteration           ....    20
   Auto Start num. interpolation iter.  ....    10
   Max. Number of Micro iterations      ....    16
   Max. Number of Macro iterations      .... Maxiter - #DIIS iter
   Number of Davidson start vectors     ....     2
   Converg. threshold I  (grad. norm)   ....   1.000e-05
   Converg. threshold II (energy diff.) ....   1.000e-08
   Grad. Scal. Fac. for Micro threshold ....   0.100
   Minimum threshold for Micro iter.    ....   0.010
   NR start threshold (gradient norm)   ....   0.001
   Initial trust radius                 ....   0.400
   Minimum AH scaling param. (alpha)    ....   1.000
   Maximum AH scaling param. (alpha)    .... 1000.000
   Orbital update algorithm             .... Taylor
   White noise on init. David. guess    .... on
   Maximum white noise                  ....   0.010
   Quad. conv. algorithm                .... NR
 SOSCF                  CNVSOSCF        .... on
   Start iteration      SOSCFMaxIt      ....   150
   Startup grad/error   SOSCFStart      ....  0.003300
 Level Shifting         CNVShift        .... on
   Level shift para.    LevelShift      ....    0.2500
   Turn off err/grad.   ShiftErr        ....    0.0010
 Zerner damping         CNVZerner       .... off
 Static damping         CNVDamp         .... on
   Fraction old density DampFac         ....    0.7000
   Max. Damping (<1)    DampMax         ....    0.9800
   Min. Damping (>=0)   DampMin         ....    0.0000
   Turn off err/grad.   DampErr         ....    0.1000
 Fernandez-Rico         CNVRico         .... off

SCF Procedure:
 Maximum # iterations   MaxIter         ....   125
 SCF integral mode      SCFMode         .... Direct
   Integral package                     .... SHARK and LIBINT hybrid scheme
 Reset frequency        DirectResetFreq ....    20
 Integral Threshold     Thresh          ....  2.500e-11 Eh
 Primitive CutOff       TCut            ....  2.500e-12 Eh

Convergence Tolerance:
 Convergence Check Mode ConvCheckMode   .... Total+1el-Energy
 Convergence forced     ConvForced      .... 0
 Energy Change          TolE            ....  1.000e-08 Eh
 1-El. energy change                    ....  1.000e-05 Eh
 Orbital Gradient       TolG            ....  1.000e-05
 Orbital Rotation angle TolX            ....  1.000e-05
 DIIS Error             TolErr          ....  5.000e-07


Diagonalization of the overlap matrix:
Smallest eigenvalue                        ... 4.033e-06
Time for diagonalization                   ...    0.022 sec
Threshold for overlap eigenvalues          ... 1.000e-08
Number of eigenvalues below threshold      ... 0
Time for construction of square roots      ...    0.045 sec
Total time needed                          ...    0.069 sec

Time for model grid setup =    0.331 sec

------------------------------
INITIAL GUESS: MODEL POTENTIAL
------------------------------
Loading Hartree-Fock densities                     ... done
Calculating cut-offs                               ... done
Initializing the effective Hamiltonian             ... done
Setting up the integral package (SHARK)            ... done
Starting the Coulomb interaction                   ... done (   0.2 sec)
Reading the grid                                   ... done
Mapping shells                                     ... done
Starting the XC term evaluation                    ... done (   0.1 sec)
  promolecular density results
     # of electrons  =     96.996279578
     EX              =    -96.552704898
     EC              =     -3.327308667
     EX+EC           =    -99.880013564
Transforming the Hamiltonian                       ... done (   0.0 sec)
Diagonalizing the Hamiltonian                      ... done (   0.0 sec)
Back transforming the eigenvectors                 ... done (   0.0 sec)
Now organizing SCF variables                       ... done
                      ------------------
                      INITIAL GUESS DONE (   0.6 sec)
                      ------------------
-------------------
DFT GRID GENERATION
-------------------

General Integration Accuracy     IntAcc      ... 4.388
Radial Grid Type                 RadialGrid  ... OptM3 with GC (2021)
Angular Grid (max. ang.)         AngularGrid ... 4 (Lebedev-302)
Angular grid pruning method      GridPruning ... 4 (adaptive)
Weight generation scheme         WeightScheme... Becke
Basis function cutoff            BFCut       ... 1.0000e-11
Integration weight cutoff        WCut        ... 1.0000e-14
Angular grids for H and He will be reduced by one unit
Partially contracted basis set               ... off
Rotationally invariant grid construction     ... off

Total number of grid points                  ...    98085
Total number of batches                      ...     1541
Average number of points per batch           ...       63
Average number of grid points per atom       ...     5449
Time for grid setup =    0.585 sec

--------------------
COSX GRID GENERATION
--------------------

GRIDX 1
-------
General Integration Accuracy     IntAcc      ... 3.816
Radial Grid Type                 RadialGrid  ... OptM3 with GC (2021)
Angular Grid (max. ang.)         AngularGrid ... 1 (Lebedev-50)
Angular grid pruning method      GridPruning ... 4 (adaptive)
Weight generation scheme         WeightScheme... Becke
Basis function cutoff            BFCut       ... 1.0000e-11
Integration weight cutoff        WCut        ... 1.0000e-14
Angular grids for H and He will be reduced by one unit
Partially contracted basis set               ... on
Rotationally invariant grid construction     ... off

Total number of grid points                  ...    12254
Total number of batches                      ...      201
Average number of points per batch           ...       60
Average number of grid points per atom       ...      681
UseSFitting                                  ... on

GRIDX 2
-------
General Integration Accuracy     IntAcc      ... 4.020
Radial Grid Type                 RadialGrid  ... OptM3 with GC (2021)
Angular Grid (max. ang.)         AngularGrid ... 2 (Lebedev-110)
Angular grid pruning method      GridPruning ... 4 (adaptive)
Weight generation scheme         WeightScheme... Becke
Basis function cutoff            BFCut       ... 1.0000e-11
Integration weight cutoff        WCut        ... 1.0000e-14
Angular grids for H and He will be reduced by one unit
Partially contracted basis set               ... on
Rotationally invariant grid construction     ... off

Total number of grid points                  ...    30991
Total number of batches                      ...      494
Average number of points per batch           ...       62
Average number of grid points per atom       ...     1722
UseSFitting                                  ... on

GRIDX 3
-------
General Integration Accuracy     IntAcc      ... 4.338
Radial Grid Type                 RadialGrid  ... OptM3 with GC (2021)
Angular Grid (max. ang.)         AngularGrid ... 3 (Lebedev-194)
Angular grid pruning method      GridPruning ... 4 (adaptive)
Weight generation scheme         WeightScheme... Becke
Basis function cutoff            BFCut       ... 1.0000e-11
Integration weight cutoff        WCut        ... 1.0000e-14
Angular grids for H and He will be reduced by one unit
Partially contracted basis set               ... on
Rotationally invariant grid construction     ... off

Total number of grid points                  ...    68843
Total number of batches                      ...     1084
Average number of points per batch           ...       63
Average number of grid points per atom       ...     3825
UseSFitting                                  ... on

Time for X-Grid setup             =    1.416 sec


--------------------
CPCM SOLVATION MODEL
--------------------
CPCM parameters:
  Epsilon                                         ...      78.3550
  Refrac                                          ...       1.3328
  Rsolv                                           ...       1.3000
  Surface type                                    ... GAUSSIAN VDW
  Epsilon function type                           ...         CPCM
Solvent:                                     ... WATER
SMD-CDS solvent descriptors:
  Soln                                       ...    1.3328
  Soln25                                     ...    1.3323
  Sola                                       ...    0.0000
  Solb                                       ...    0.0000
  Solg                                       ...    0.0000
  Solc                                       ...    0.0000
  Solh                                       ...    0.0000
Radii:
 Radius for C  used is    3.4960 Bohr (=   1.8500 Ang.)
 Radius for N  used is    3.5716 Bohr (=   1.8900 Ang.)
 Radius for O  used is    2.8724 Bohr (=   1.5200 Ang.)
 Radius for F  used is    3.2692 Bohr (=   1.7300 Ang.)
 Radius for H  used is    2.2677 Bohr (=   1.2000 Ang.)
 Radius for S  used is    4.7054 Bohr (=   2.4900 Ang.)
Calculating surface                               ...        done! (  0.0s)
GEPOL surface points                              ...         1158
GEPOL Volume                                      ...    1372.2790
GEPOL Surface-area                                ...     850.5401
Calculating surface distance matrix               ...        done! (  0.0s)
Performing Cholesky decomposition & store         ...        done! (  0.1s)
Overall time for CPCM initialization              ...                 0.1s
--------------
SCF ITERATIONS
--------------
ITER       Energy         Delta-E        Max-DP      RMS-DP      [F,P]     Damp
               ***  Starting incremental Fock matrix formation  ***
  0   -989.8668746379   0.000000000000 0.34584636  0.00326086  0.2372729 0.7000
  1   -990.0290995535  -0.162224915595 0.35787361  0.00312815  0.1093562 0.7000
                               ***Turning on DIIS***
  2   -990.1015642817  -0.072464728208 1.99127108  0.01181082  0.0533530 0.0000
  3   -990.2256522779  -0.124087996274 0.88271251  0.00460914  0.0549768 0.0000
  4   -990.2448186870  -0.019166409029 0.35014581  0.00188560  0.0125633 0.0000
  5   -990.2459929371  -0.001174250120 0.16868592  0.00094820  0.0062131 0.0000
                      *** Initiating the SOSCF procedure ***
                           *** Shutting down DIIS ***
                      *** Re-Reading the Fockian *** 
                      *** Removing any level shift *** 
ITER      Energy       Delta-E        Grad      Rot      Max-DP    RMS-DP
  6   -990.24622384  -0.0002309001  0.001485  0.001485  0.056501  0.000340
               *** Restarting incremental Fock matrix formation ***
  7   -990.24628303  -0.0000591970  0.000973  0.002389  0.010938  0.000197
  8   -990.24631959  -0.0000365602  0.000336  0.002524  0.010816  0.000188
  9   -990.24632553  -0.0000059396  0.000654  0.000664  0.005576  0.000091
 10   -990.24633187  -0.0000063327  0.000102  0.000184  0.003697  0.000033
 11   -990.24633193  -0.0000000664  0.000091  0.000124  0.006018  0.000031
 12   -990.24633228  -0.0000003460  0.000015  0.000042  0.007857  0.000041
 13   -990.24633228  -0.0000000058  0.000007  0.000035  0.012700  0.000080
 14   -990.24633228   0.0000000019  0.000005  0.000010  0.009583  0.000047
                  ***Gradient check signals convergence***
              ***Rediagonalizing the Fockian in SOSCF/NRSCF***

               *****************************************************
               *                     SUCCESS                       *
               *           SCF CONVERGED AFTER  15 CYCLES          *
               *****************************************************

Old exchange energy                            =    -28.432084673 Eh
New exchange energy                            =    -28.432083656 Eh
Exchange energy change after final integration =      0.000001017 Eh
Total energy after final integration           =   -990.246331268 Eh
Final COS-X integration done in                =     3.757 sec

SMD CDS free energy correction energy :                 5.87319     Kcal/mol
Total Energy after SMD CDS correction =              -990.236971747 Eh

----------------
TOTAL SCF ENERGY
----------------

Total Energy       :         -990.23697175 Eh          -26945.71790 eV

Components:
Nuclear Repulsion  :          706.99929696 Eh           19238.42893 eV
Electronic Energy  :        -1697.23626871 Eh          -46184.14683 eV
One Electron Energy:        -2774.88220419 Eh          -75508.38355 eV
Two Electron Energy:         1077.64593548 Eh           29324.23672 eV
Max COSX asymmetry :            0.00000237 Eh               0.00006 eV
CPCM Dielectric    :           -0.13310799 Eh              -3.62205 eV
SMD CDS (Gcds)     :            0.00935952 Eh               0.25469 eV

Virial components:
Potential Energy   :        -1977.46444473 Eh          -53809.54317 eV
Kinetic Energy     :          987.22747298 Eh           26863.82527 eV
Virial Ratio       :            2.00304843


DFT components:
N(Alpha)           :       48.999948102406 electrons
N(Beta)            :       48.999948102406 electrons
N(Total)           :       97.999896204812 electrons
E(XC)              :      -73.338244908363 Eh       
DFET-embed. en.    :        0.000000000000 Eh       
CPCM Solvation Model Properties:
Surface-charge          :            0.94950351
Charge-correction       :           -0.00598286 Eh              -0.16280 eV
Free-energy (cav+disp)  :            0.00935952 Eh               0.25469 eV

---------------
SCF CONVERGENCE
---------------

  Last Energy change         ...   -1.8517e-09  Tolerance :   1.0000e-08
  Last MAX-Density change    ...    5.3291e-15  Tolerance :   1.0000e-07
  Last RMS-Density change    ...    4.5537e-17  Tolerance :   5.0000e-09
  Last Orbital Gradient      ...    2.0471e-06  Tolerance :   1.0000e-05
  Last Orbital Rotation      ...    1.3311e-06  Tolerance :   1.0000e-05

             **** THE GBW FILE WAS UPDATED (structure_opt.gbw) ****
             **** DENSITY structure_opt.scfp WAS UPDATED ****
             **** ENERGY FILE WAS UPDATED (structure_opt.en.tmp) ****
             **** THE GBW FILE WAS UPDATED (structure_opt.gbw) ****
             **** DENSITY structure_opt.scfp WAS UPDATED ****
----------------
ORBITAL ENERGIES
----------------

  NO   OCC          E(Eh)            E(eV) 
   0   2.0000     -88.720849     -2414.2170 
   1   2.0000     -24.793221      -674.6578 
   2   2.0000     -19.275269      -524.5067 
   3   2.0000     -19.243907      -523.6533 
   4   2.0000     -14.669459      -399.1763 
   5   2.0000     -14.435418      -392.8077 
   6   2.0000     -10.437492      -284.0186 
   7   2.0000     -10.363920      -282.0166 
   8   2.0000     -10.338009      -281.3115 
   9   2.0000     -10.320926      -280.8467 
  10   2.0000     -10.290288      -280.0130 
  11   2.0000     -10.236296      -278.5438 
  12   2.0000      -7.916666      -215.4234 
  13   2.0000      -5.879870      -159.9994 
  14   2.0000      -5.872436      -159.7971 
  15   2.0000      -5.872372      -159.7954 
  16   2.0000      -1.396254       -37.9940 
  17   2.0000      -1.347904       -36.6783 
  18   2.0000      -1.151221       -31.3263 
  19   2.0000      -1.109090       -30.1799 
  20   2.0000      -1.008141       -27.4329 
  21   2.0000      -0.943173       -25.6650 
  22   2.0000      -0.873768       -23.7764 
  23   2.0000      -0.836498       -22.7623 
  24   2.0000      -0.796440       -21.6722 
  25   2.0000      -0.768980       -20.9250 
  26   2.0000      -0.705804       -19.2059 
  27   2.0000      -0.686331       -18.6760 
  28   2.0000      -0.669166       -18.2089 
  29   2.0000      -0.665501       -18.1092 
  30   2.0000      -0.661392       -17.9974 
  31   2.0000      -0.633036       -17.2258 
  32   2.0000      -0.620224       -16.8772 
  33   2.0000      -0.615029       -16.7358 
  34   2.0000      -0.563646       -15.3376 
  35   2.0000      -0.536869       -14.6090 
  36   2.0000      -0.527773       -14.3614 
  37   2.0000      -0.527727       -14.3602 
  38   2.0000      -0.494683       -13.4610 
  39   2.0000      -0.494290       -13.4503 
  40   2.0000      -0.455833       -12.4039 
  41   2.0000      -0.432467       -11.7680 
  42   2.0000      -0.421432       -11.4678 
  43   2.0000      -0.416253       -11.3268 
  44   2.0000      -0.407913       -11.0999 
  45   2.0000      -0.391030       -10.6405 
  46   2.0000      -0.384669       -10.4674 
  47   2.0000      -0.259291        -7.0557 
  48   2.0000      -0.259242        -7.0543 
  49   0.0000      -0.064661        -1.7595 
  50   0.0000       0.022661         0.6166 
  51   0.0000       0.051142         1.3917 
  52   0.0000       0.055400         1.5075 
  53   0.0000       0.061123         1.6632 
  54   0.0000       0.071964         1.9582 
  55   0.0000       0.075269         2.0482 
  56   0.0000       0.084580         2.3016 
  57   0.0000       0.093574         2.5463 
  58   0.0000       0.098267         2.6740 
  59   0.0000       0.101237         2.7548 
  60   0.0000       0.114424         3.1136 
  61   0.0000       0.119101         3.2409 
  62   0.0000       0.127771         3.4768 
  63   0.0000       0.135777         3.6947 
  64   0.0000       0.136605         3.7172 
  65   0.0000       0.148089         4.0297 
  66   0.0000       0.150550         4.0967 
  67   0.0000       0.161681         4.3996 
  68   0.0000       0.165635         4.5072 
  69   0.0000       0.168168         4.5761 
  70   0.0000       0.170348         4.6354 
  71   0.0000       0.175909         4.7867 
  72   0.0000       0.178319         4.8523 
  73   0.0000       0.180971         4.9245 
  74   0.0000       0.184041         5.0080 
  75   0.0000       0.194178         5.2838 
  76   0.0000       0.195027         5.3069 
  77   0.0000       0.198594         5.4040 
  78   0.0000       0.202567         5.5121 
  79   0.0000       0.212954         5.7948 
  80   0.0000       0.219172         5.9640 
  81   0.0000       0.222350         6.0505 
  82   0.0000       0.225778         6.1437 
  83   0.0000       0.235182         6.3996 
  84   0.0000       0.237416         6.4604 
  85   0.0000       0.248535         6.7630 
  86   0.0000       0.251297         6.8381 
  87   0.0000       0.264624         7.2008 
  88   0.0000       0.266514         7.2522 
  89   0.0000       0.270704         7.3662 
  90   0.0000       0.275681         7.5017 
  91   0.0000       0.280256         7.6262 
  92   0.0000       0.282139         7.6774 
  93   0.0000       0.286468         7.7952 
  94   0.0000       0.292629         7.9628 
  95   0.0000       0.299332         8.1452 
  96   0.0000       0.300105         8.1663 
  97   0.0000       0.309333         8.4174 
  98   0.0000       0.321207         8.7405 
  99   0.0000       0.324956         8.8425 
 100   0.0000       0.333071         9.0633 
 101   0.0000       0.344004         9.3608 
 102   0.0000       0.349016         9.4972 
 103   0.0000       0.354144         9.6368 
 104   0.0000       0.361878         9.8472 
 105   0.0000       0.364256         9.9119 
 106   0.0000       0.372748        10.1430 
 107   0.0000       0.380982        10.3671 
 108   0.0000       0.397338        10.8121 
 109   0.0000       0.403965        10.9924 
 110   0.0000       0.408912        11.1271 
 111   0.0000       0.415346        11.3021 
 112   0.0000       0.420351        11.4383 
 113   0.0000       0.433405        11.7935 
 114   0.0000       0.440806        11.9949 
 115   0.0000       0.453006        12.3269 
 116   0.0000       0.468138        12.7387 
 117   0.0000       0.479358        13.0440 
 118   0.0000       0.482313        13.1244 
 119   0.0000       0.491412        13.3720 
 120   0.0000       0.502213        13.6659 
 121   0.0000       0.508479        13.8364 
 122   0.0000       0.520677        14.1683 
 123   0.0000       0.532005        14.4766 
 124   0.0000       0.533343        14.5130 
 125   0.0000       0.552301        15.0289 
 126   0.0000       0.585017        15.9191 
 127   0.0000       0.615684        16.7536 
 128   0.0000       0.619380        16.8542 
 129   0.0000       0.640166        17.4198 
 130   0.0000       0.642149        17.4738 
 131   0.0000       0.654336        17.8054 
 132   0.0000       0.661919        18.0117 
 133   0.0000       0.680910        18.5285 
 134   0.0000       0.699458        19.0332 
 135   0.0000       0.706663        19.2293 
 136   0.0000       0.719974        19.5915 
 137   0.0000       0.738321        20.0907 
 138   0.0000       0.750666        20.4267 
 139   0.0000       0.771268        20.9873 
 140   0.0000       0.773797        21.0561 
 141   0.0000       0.781361        21.2619 
 142   0.0000       0.811238        22.0749 
 143   0.0000       0.832601        22.6562 
 144   0.0000       0.843179        22.9441 
 145   0.0000       0.851773        23.1779 
 146   0.0000       0.858970        23.3738 
 147   0.0000       0.873835        23.7783 
 148   0.0000       0.909318        24.7438 
 149   0.0000       0.911367        24.7996 
 150   0.0000       0.921135        25.0653 
 151   0.0000       0.937087        25.4994 
 152   0.0000       0.956813        26.0362 
 153   0.0000       0.960972        26.1494 
 154   0.0000       0.964133        26.2354 
 155   0.0000       0.974203        26.5094 
 156   0.0000       0.980441        26.6792 
 157   0.0000       0.987957        26.8837 
 158   0.0000       1.003710        27.3123 
 159   0.0000       1.006766        27.3955 
 160   0.0000       1.015550        27.6345 
 161   0.0000       1.036411        28.2022 
 162   0.0000       1.045735        28.4559 
 163   0.0000       1.063352        28.9353 
 164   0.0000       1.074810        29.2471 
 165   0.0000       1.083059        29.4715 
 166   0.0000       1.084681        29.5157 
 167   0.0000       1.146683        31.2028 
 168   0.0000       1.152655        31.3653 
 169   0.0000       1.163421        31.6583 
 170   0.0000       1.175396        31.9841 
 171   0.0000       1.203652        32.7530 
 172   0.0000       1.205605        32.8062 
 173   0.0000       1.222945        33.2780 
 174   0.0000       1.252004        34.0688 
 175   0.0000       1.266074        34.4516 
 176   0.0000       1.278997        34.8033 
 177   0.0000       1.282615        34.9017 
 178   0.0000       1.283958        34.9383 
 179   0.0000       1.298527        35.3347 
 180   0.0000       1.301286        35.4098 
 181   0.0000       1.357827        36.9484 
 182   0.0000       1.395952        37.9858 
 183   0.0000       1.407901        38.3109 
 184   0.0000       1.476093        40.1665 
 185   0.0000       1.512291        41.1515 
 186   0.0000       1.543632        42.0044 
 187   0.0000       1.588827        43.2342 
 188   0.0000       1.589245        43.2456 
 189   0.0000       1.590993        43.2931 
 190   0.0000       1.618713        44.0474 
 191   0.0000       1.632672        44.4273 
 192   0.0000       1.656970        45.0885 
 193   0.0000       1.657903        45.1138 
 194   0.0000       1.696428        46.1622 
 195   0.0000       1.697553        46.1928 
 196   0.0000       1.706365        46.4325 
 197   0.0000       1.718336        46.7583 
 198   0.0000       1.750128        47.6234 
 199   0.0000       1.762939        47.9720 
 200   0.0000       1.790734        48.7283 
 201   0.0000       1.810873        49.2764 
 202   0.0000       1.812365        49.3170 
 203   0.0000       1.820549        49.5397 
 204   0.0000       1.844933        50.2032 
 205   0.0000       1.865130        50.7528 
 206   0.0000       1.870321        50.8940 
 207   0.0000       1.912748        52.0485 
 208   0.0000       1.935012        52.6543 
 209   0.0000       1.948226        53.0139 
 210   0.0000       1.976179        53.7746 
 211   0.0000       1.980257        53.8855 
 212   0.0000       1.992621        54.2220 
 213   0.0000       2.012232        54.7556 
 214   0.0000       2.034932        55.3733 
 215   0.0000       2.045348        55.6568 
 216   0.0000       2.067085        56.2482 
 217   0.0000       2.113738        57.5177 
 218   0.0000       2.141641        58.2770 
 219   0.0000       2.149734        58.4972 
 220   0.0000       2.169013        59.0219 
 221   0.0000       2.176285        59.2197 
 222   0.0000       2.177843        59.2621 
 223   0.0000       2.207009        60.0558 
 224   0.0000       2.293399        62.4066 
 225   0.0000       2.324482        63.2524 
 226   0.0000       2.334711        63.5307 
 227   0.0000       2.336760        63.5865 
 228   0.0000       2.400174        65.3120 
 229   0.0000       2.431111        66.1539 
 230   0.0000       2.495602        67.9088 
 231   0.0000       2.564753        69.7905 
 232   0.0000       2.594787        70.6077 
 233   0.0000       2.596955        70.6667 
 234   0.0000       2.605222        70.8917 
 235   0.0000       2.628199        71.5169 
 236   0.0000       2.662731        72.4566 
 237   0.0000       2.665796        72.5400 
 238   0.0000       2.673061        72.7377 
 239   0.0000       2.674024        72.7639 
 240   0.0000       2.692849        73.2761 
 241   0.0000       2.785345        75.7931 
 242   0.0000       2.798112        76.1405 
 243   0.0000       2.830313        77.0167 
 244   0.0000       2.843565        77.3773 
 245   0.0000       2.860744        77.8448 
 246   0.0000       2.872142        78.1550 
 247   0.0000       2.885788        78.5263 
 248   0.0000       2.899653        78.9036 
 249   0.0000       2.906808        79.0983 
 250   0.0000       2.938183        79.9520 
 251   0.0000       2.949579        80.2621 
 252   0.0000       2.961154        80.5771 
 253   0.0000       2.982318        81.1530 
 254   0.0000       2.987120        81.2837 
 255   0.0000       3.002849        81.7117 
 256   0.0000       3.017548        82.1117 
 257   0.0000       3.100105        84.3582 
 258   0.0000       3.153983        85.8243 
 259   0.0000       3.189690        86.7959 
 260   0.0000       3.270439        88.9932 
 261   0.0000       3.308958        90.0413 
 262   0.0000       3.309342        90.0518 
 263   0.0000       3.350973        91.1846 
 264   0.0000       3.369443        91.6872 
 265   0.0000       3.456049        94.0439 
 266   0.0000       3.499244        95.2193 
 267   0.0000       3.560453        96.8848 
 268   0.0000       3.596162        97.8565 
 269   0.0000       3.681572       100.1807 
 270   0.0000       3.705853       100.8414 
 271   0.0000       3.754591       102.1676 
 272   0.0000       3.853862       104.8689 
 273   0.0000       3.888077       105.8000 
 274   0.0000       3.891025       105.8802 
 275   0.0000       3.893621       105.9508 
 276   0.0000       3.905233       106.2668 
 277   0.0000       3.925094       106.8073 
 278   0.0000       4.012668       109.1903 
 279   0.0000       4.059815       110.4732 
 280   0.0000       4.120790       112.1324 
 281   0.0000       4.144781       112.7852 
 282   0.0000       4.169200       113.4497 
 283   0.0000       4.406074       119.8954 
 284   0.0000       4.479047       121.8811 
 285   0.0000       4.506631       122.6317 
 286   0.0000       4.762697       129.5996 
 287   0.0000       4.943388       134.5164 
 288   0.0000       5.082212       138.2940 
 289   0.0000       5.124387       139.4417 
 290   0.0000       5.193315       141.3173 
 291   0.0000       5.221267       142.0779 
 292   0.0000       5.314872       144.6250 
 293   0.0000       5.700055       155.1064 
 294   0.0000       6.131422       166.8445 
 295   0.0000       6.412748       174.4997 
 296   0.0000       6.542479       178.0299 
 297   0.0000       6.840705       186.1450 
 298   0.0000       7.988791       217.3861 
 299   0.0000      17.552609       477.6308 
 300   0.0000      17.556910       477.7478 
 301   0.0000      17.658404       480.5096 
 302   0.0000      23.651778       643.5976 
 303   0.0000      23.891224       650.1132 
 304   0.0000      23.985114       652.6681 
 305   0.0000      24.032246       653.9507 
 306   0.0000      24.071803       655.0271 
 307   0.0000      24.181660       658.0164 
 308   0.0000      35.376667       962.6480 
 309   0.0000      35.657694       970.2952 
 310   0.0000      49.902444      1357.9145 
 311   0.0000      49.964887      1359.6137 
 312   0.0000      66.792712      1817.5221 
 313   0.0000     188.979802      5142.4019 

--------------------
FRAGMENT INFORMATION
--------------------
Fragment  1:    0   1   2   3   4   5 
Fragment  2:    6   7   8   9  10  11  12 
Fragment  3:   13  14  15  16 
Fragment  4:   17 


                    ********************************
                    * MULLIKEN POPULATION ANALYSIS *
                    ********************************

-------------------------
MULLIKEN FRAGMENT CHARGES
-------------------------
 Fragment   0 :  -0.468409
 Fragment   1 :   0.470082
 Fragment   2 :  -0.055992
 Fragment   3 :  -0.945681
Sum of fragment charges:   -1.0000000

---------------------------------
MULLIKEN FRAGMENT OVERLAP CHARGES
---------------------------------
                  0          1          2          3    
      0      18.005521   0.366301  -0.004802   0.002131
      1       0.366301  35.067569   0.004316   0.011266
      2      -0.004802   0.004316  11.698587  -0.691821
      3       0.002131   0.011266  -0.691821  17.284893

-----------------------
MULLIKEN ATOMIC CHARGES
-----------------------
   0 C :   -0.123732
   1 N :   -0.205351
   2 C :   -0.288971
   3 C :   -0.314998
   4 C :    0.516328
   5 C :   -0.051685
   6 N :   -0.061274
   7 O :   -0.053887
   8 O :   -0.225961
   9 F :   -0.101980
  10 H :    0.296291
  11 H :    0.282169
  12 H :    0.334725
  13 C :   -0.444171
  14 H :    0.129418
  15 H :    0.129424
  16 H :    0.129337
  17 S :   -0.945681
Sum of atomic charges:   -1.0000000

--------------------------------
MULLIKEN REDUCED ORBITAL CHARGES
--------------------------------
  0 C s       :     3.349169  s :     3.349169
      pz      :     0.678446  p :     2.614155
      px      :     0.977896
      py      :     0.957813
      dz2     :     0.052750  d :     0.160408
      dxz     :     0.048824
      dyz     :     0.028426
      dx2y2   :     0.013770
      dxy     :     0.016638
  1 N s       :     3.625053  s :     3.625053
      pz      :     1.142733  p :     3.549774
      px      :     1.242677
      py      :     1.164365
      dz2     :     0.008165  d :     0.030524
      dxz     :     0.007239
      dyz     :     0.004760
      dx2y2   :     0.005504
      dxy     :     0.004857
  2 C s       :     3.376282  s :     3.376282
      pz      :     0.812714  p :     2.828551
      px      :     1.164070
      py      :     0.851767
      dz2     :     0.023583  d :     0.084138
      dxz     :     0.032187
      dyz     :     0.014802
      dx2y2   :     0.007220
      dxy     :     0.006346
  3 C s       :     3.246791  s :     3.246791
      pz      :     1.167593  p :     3.015043
      px      :     0.883155
      py      :     0.964295
      dz2     :     0.015295  d :     0.053165
      dxz     :     0.017412
      dyz     :     0.005091
      dx2y2   :     0.008223
      dxy     :     0.007145
  4 C s       :     2.441915  s :     2.441915
      pz      :     0.871828  p :     2.984671
      px      :     1.279258
      py      :     0.833585
      dz2     :     0.016557  d :     0.057086
      dxz     :     0.015858
      dyz     :     0.010551
      dx2y2   :     0.007210
      dxy     :     0.006910
  5 C s       :     3.300459  s :     3.300459
      pz      :     1.092398  p :     2.678075
      px      :     0.442489
      py      :     1.143188
      dz2     :     0.013628  d :     0.073151
      dxz     :     0.029770
      dyz     :     0.010337
      dx2y2   :     0.011215
      dxy     :     0.008200
  6 N s       :     3.566454  s :     3.566454
      pz      :     1.055316  p :     3.385847
      px      :     1.228014
      py      :     1.102517
      dz2     :     0.027711  d :     0.108974
      dxz     :     0.039355
      dyz     :     0.023075
      dx2y2   :     0.008550
      dxy     :     0.010282
  7 O s       :     3.779191  s :     3.779191
      pz      :     1.027857  p :     4.256003
      px      :     1.827105
      py      :     1.401041
      dz2     :     0.009709  d :     0.018692
      dxz     :     0.003511
      dyz     :     0.005304
      dx2y2   :     0.000102
      dxy     :     0.000067
  8 O s       :     3.817048  s :     3.817048
      pz      :     1.622789  p :     4.396793
      px      :     1.219121
      py      :     1.554883
      dz2     :     0.001059  d :     0.012121
      dxz     :     0.004900
      dyz     :     0.000882
      dx2y2   :     0.003118
      dxy     :     0.002161
  9 F s       :     3.918050  s :     3.918050
      pz      :     1.389143  p :     5.178599
      px      :     1.915845
      py      :     1.873612
      dz2     :     0.003096  d :     0.005331
      dxz     :     0.000997
      dyz     :     0.001201
      dx2y2   :     0.000027
      dxy     :     0.000009
 10 H s       :     0.679812  s :     0.679812
      pz      :     0.005481  p :     0.023897
      px      :     0.014116
      py      :     0.004301
 11 H s       :     0.692865  s :     0.692865
      pz      :     0.016376  p :     0.024966
      px      :     0.003655
      py      :     0.004936
 12 H s       :     0.639748  s :     0.639748
      pz      :     0.007736  p :     0.025527
      px      :     0.013406
      py      :     0.004385
 13 C s       :     3.303261  s :     3.303261
      pz      :     1.027226  p :     3.088280
      px      :     1.020070
      py      :     1.040984
      dz2     :     0.014322  d :     0.052631
      dxz     :     0.008875
      dyz     :     0.007205
      dx2y2   :     0.010899
      dxy     :     0.011331
 14 H s       :     0.847935  s :     0.847935
      pz      :     0.005838  p :     0.022647
      px      :     0.005006
      py      :     0.011803
 15 H s       :     0.847877  s :     0.847877
      pz      :     0.004690  p :     0.022699
      px      :     0.011007
      py      :     0.007003
 16 H s       :     0.847996  s :     0.847996
      pz      :     0.012040  p :     0.022666
      px      :     0.005864
      py      :     0.004763
 17 S s       :     5.985514  s :     5.985514
      pz      :     3.625034  p :    10.928783
      px      :     3.543947
      py      :     3.759803
      dz2     :     0.003220  d :     0.031383
      dxz     :     0.010674
      dyz     :     0.006302
      dx2y2   :     0.003471
      dxy     :     0.007715


                     *******************************
                     * LOEWDIN POPULATION ANALYSIS *
                     *******************************

------------------------
LOEWDIN FRAGMENT CHARGES
------------------------
 Fragment   0 :   0.044692
 Fragment   1 :  -0.064183
 Fragment   2 :  -0.352236
 Fragment   3 :  -0.628273

----------------------------
LOEWDIN FRAGMENT BOND ORDERS
----------------------------
                  0          1          2          3    
      0      56.973686   6.780660   0.003725   0.022869
      1       6.780660  43.790842   0.003570   0.025989
      2       0.003725   0.003570  15.408794   1.743363
      3       0.022869   0.025989   1.743363  16.628273

----------------------
LOEWDIN ATOMIC CHARGES
----------------------
   0 C :    0.110956
   1 N :   -0.111948
   2 C :    0.077132
   3 C :   -0.034597
   4 C :    0.069990
   5 C :   -0.066840
   6 N :    0.239457
   7 O :   -0.153886
   8 O :   -0.340559
   9 F :   -0.078284
  10 H :    0.086917
  11 H :    0.084520
  12 H :    0.097651
  13 C :   -0.357516
  14 H :    0.002224
  15 H :    0.001434
  16 H :    0.001621
  17 S :   -0.628273

-------------------------------
LOEWDIN REDUCED ORBITAL CHARGES
-------------------------------
  0 C s       :     2.743861  s :     2.743861
      pz      :     0.849323  p :     2.816081
      px      :     1.080710
      py      :     0.886048
      dz2     :     0.112518  d :     0.329102
      dxz     :     0.100693
      dyz     :     0.050383
      dx2y2   :     0.033870
      dxy     :     0.031638
  1 N s       :     3.151565  s :     3.151565
      pz      :     1.301253  p :     3.903544
      px      :     1.416931
      py      :     1.185360
      dz2     :     0.017383  d :     0.056839
      dxz     :     0.015719
      dyz     :     0.007797
      dx2y2   :     0.009540
      dxy     :     0.006400
  2 C s       :     2.786905  s :     2.786905
      pz      :     1.032856  p :     2.954123
      px      :     1.096589
      py      :     0.824678
      dz2     :     0.060312  d :     0.181840
      dxz     :     0.069042
      dyz     :     0.027985
      dx2y2   :     0.014019
      dxy     :     0.010482
  3 C s       :     2.781394  s :     2.781394
      pz      :     1.081409  p :     3.128847
      px      :     1.092817
      py      :     0.954622
      dz2     :     0.034113  d :     0.124356
      dxz     :     0.045072
      dyz     :     0.008014
      dx2y2   :     0.022207
      dxy     :     0.014950
  4 C s       :     2.779645  s :     2.779645
      pz      :     1.066211  p :     3.022067
      px      :     1.112113
      py      :     0.843743
      dz2     :     0.040914  d :     0.128298
      dxz     :     0.039151
      dyz     :     0.021250
      dx2y2   :     0.015052
      dxy     :     0.011931
  5 C s       :     2.758125  s :     2.758125
      pz      :     1.089281  p :     3.128391
      px      :     0.958944
      py      :     1.080166
      dz2     :     0.039911  d :     0.180325
      dxz     :     0.071770
      dyz     :     0.019827
      dx2y2   :     0.031417
      dxy     :     0.017400
  6 N s       :     3.051896  s :     3.051896
      pz      :     1.206459  p :     3.502294
      px      :     1.215727
      py      :     1.080108
      dz2     :     0.060423  d :     0.206353
      dxz     :     0.076202
      dyz     :     0.035693
      dx2y2   :     0.017525
      dxy     :     0.016509
  7 O s       :     3.580858  s :     3.580858
      pz      :     1.283794  p :     4.540716
      px      :     1.838638
      py      :     1.418283
      dz2     :     0.020434  d :     0.032312
      dxz     :     0.005156
      dyz     :     0.006532
      dx2y2   :     0.000119
      dxy     :     0.000072
  8 O s       :     3.666281  s :     3.666281
      pz      :     1.710422  p :     4.653782
      px      :     1.369839
      py      :     1.573522
      dz2     :     0.001546  d :     0.020496
      dxz     :     0.009267
      dyz     :     0.001176
      dx2y2   :     0.005713
      dxy     :     0.002793
  9 F s       :     3.714955  s :     3.714955
      pz      :     1.535302  p :     5.355960
      px      :     1.934351
      py      :     1.886308
      dz2     :     0.004764  d :     0.007369
      dxz     :     0.001184
      dyz     :     0.001376
      dx2y2   :     0.000037
      dxy     :     0.000009
 10 H s       :     0.842688  s :     0.842688
      pz      :     0.016678  p :     0.070395
      px      :     0.042284
      py      :     0.011433
 11 H s       :     0.843029  s :     0.843029
      pz      :     0.047847  p :     0.072451
      px      :     0.011206
      py      :     0.013398
 12 H s       :     0.829065  s :     0.829065
      pz      :     0.023102  p :     0.073284
      px      :     0.038778
      py      :     0.011404
 13 C s       :     2.858625  s :     2.858625
      pz      :     1.131681  p :     3.392044
      px      :     1.134788
      py      :     1.125575
      dz2     :     0.028303  d :     0.106847
      dxz     :     0.019013
      dyz     :     0.014707
      dx2y2   :     0.021480
      dxy     :     0.023345
 14 H s       :     0.926072  s :     0.926072
      pz      :     0.017682  p :     0.071704
      px      :     0.015414
      py      :     0.038608
 15 H s       :     0.926652  s :     0.926652
      pz      :     0.014154  p :     0.071914
      px      :     0.036292
      py      :     0.021468
 16 H s       :     0.926756  s :     0.926756
      pz      :     0.039586  p :     0.071622
      px      :     0.017863
      py      :     0.014173
 17 S s       :     5.607099  s :     5.607099
      pz      :     3.654879  p :    10.983952
      px      :     3.585191
      py      :     3.743882
      dz2     :     0.003615  d :     0.037221
      dxz     :     0.012860
      dyz     :     0.007539
      dx2y2   :     0.003944
      dxy     :     0.009264


                      *****************************
                      * MAYER POPULATION ANALYSIS *
                      *****************************

  NA   - Mulliken gross atomic population
  ZA   - Total nuclear charge
  QA   - Mulliken gross atomic charge
  VA   - Mayer's total valence
  BVA  - Mayer's bonded valence
  FA   - Mayer's free valence

  ATOM       NA         ZA         QA         VA         BVA        FA
  0 C      6.1237     6.0000    -0.1237     4.3573     4.3573     0.0000
  1 N      7.2054     7.0000    -0.2054     2.7083     2.7083    -0.0000
  2 C      6.2890     6.0000    -0.2890     3.9540     3.9540    -0.0000
  3 C      6.3150     6.0000    -0.3150     4.4044     4.4044    -0.0000
  4 C      5.4837     6.0000     0.5163     3.8825     3.8825    -0.0000
  5 C      6.0517     6.0000    -0.0517     3.2564     3.2564     0.0000
  6 N      7.0613     7.0000    -0.0613     3.9356     3.9356     0.0000
  7 O      8.0539     8.0000    -0.0539     2.1997     2.1997     0.0000
  8 O      8.2260     8.0000    -0.2260     2.0238     2.0238     0.0000
  9 F      9.1020     9.0000    -0.1020     0.9618     0.9618     0.0000
 10 H      0.7037     1.0000     0.2963     0.8710     0.8710    -0.0000
 11 H      0.7178     1.0000     0.2822     0.9035     0.9035    -0.0000
 12 H      0.6653     1.0000     0.3347     0.8318     0.8318    -0.0000
 13 C      6.4442     6.0000    -0.4442     3.6061     3.6061     0.0000
 14 H      0.8706     1.0000     0.1294     0.9436     0.9436     0.0000
 15 H      0.8706     1.0000     0.1294     0.9394     0.9394     0.0000
 16 H      0.8707     1.0000     0.1293     0.9362     0.9362    -0.0000
 17 S     16.9457    16.0000    -0.9457     0.6338     0.6338     0.0000

  Mayer bond orders larger than 0.100000
B(  0-C ,  1-N ) :   1.2700 B(  0-C ,  2-C ) :   0.1766 B(  0-C ,  3-C ) :   0.1970 
B(  0-C ,  4-C ) :   0.2276 B(  0-C ,  5-C ) :   1.2732 B(  0-C ,  6-N ) :  -0.1611 
B(  0-C ,  9-F ) :   1.4314 B(  1-N ,  2-C ) :   1.1881 B(  1-N ,  5-C ) :   0.1929 
B(  2-C ,  3-C ) :   1.5849 B(  2-C , 10-H ) :   0.8864 B(  3-C ,  4-C ) :   1.4535 
B(  3-C ,  8-O ) :   0.1491 B(  3-C , 11-H ) :   0.8383 B(  4-C ,  5-C ) :   1.4184 
B(  4-C ,  6-N ) :  -0.1596 B(  4-C ,  8-O ) :   0.1888 B(  4-C ,  9-F ) :  -0.1242 
B(  4-C , 12-H ) :   0.7683 B(  5-C ,  6-N ) :   0.7549 B(  5-C ,  8-O ) :  -0.1886 
B(  5-C ,  9-F ) :  -0.3861 B(  6-N ,  7-O ) :   1.8434 B(  6-N ,  8-O ) :   1.6801 
B(  7-O ,  8-O ) :   0.2621 B( 13-C , 14-H ) :   0.9839 B( 13-C , 15-H ) :   0.9845 
B( 13-C , 16-H ) :   0.9838 B( 13-C , 17-S ) :   0.6533 

-------
[...]
 289   0.0000       5.133081       139.6782 
 290   0.0000       5.201619       141.5433 
 291   0.0000       5.268620       143.3664 
 292   0.0000       5.365049       145.9904 
 293   0.0000       5.834336       158.7604 
 294   0.0000       6.284941       171.0220 
 295   0.0000       6.421322       174.7331 
 296   0.0000       6.552865       178.3125 
 297   0.0000       6.863468       186.7645 
 298   0.0000       7.989437       217.4036 
 299   0.0000      17.552771       477.6352 
 300   0.0000      17.557063       477.7520 
 301   0.0000      17.659336       480.5350 
 302   0.0000      23.712859       645.2597 
 303   0.0000      23.964065       652.0954 
 304   0.0000      24.026752       653.8012 
 305   0.0000      24.033267       653.9784 
 306   0.0000      24.183736       658.0729 
 307   0.0000      24.295523       661.1148 
 308   0.0000      35.416020       963.7189 
 309   0.0000      35.735069       972.4007 
 310   0.0000      49.912547      1358.1894 
 311   0.0000      50.010859      1360.8647 
 312   0.0000      66.806776      1817.9048 
 313   0.0000     188.980583      5142.4231 

--------------------
FRAGMENT INFORMATION
--------------------
Fragment  1:    0   1   2   3   4   5 
Fragment  2:    6   7   8   9  10  11  12 
Fragment  3:   13  14  15  16 
Fragment  4:   17 


                    ********************************
                    * MULLIKEN POPULATION ANALYSIS *
                    ********************************

-------------------------
MULLIKEN FRAGMENT CHARGES
-------------------------
 Fragment   0 :  -0.438030
 Fragment   1 :   0.440126
 Fragment   2 :  -0.057034
 Fragment   3 :  -0.945062
Sum of fragment charges:   -1.0000000

---------------------------------
MULLIKEN FRAGMENT OVERLAP CHARGES
---------------------------------
                  0          1          2          3    
      0      14.074560   0.204968  -0.005647  -0.001078
      1       0.204968  35.231310   0.004842   0.015483
      2      -0.005647   0.004842  11.694801  -0.682473
      3      -0.001078   0.015483  -0.682473  17.279096

-----------------------
MULLIKEN ATOMIC CHARGES
-----------------------
   0 C :   -0.053069
   1 N :   -0.192408
   2 C :   -0.300604
   3 C :   -0.365002
   4 C :    0.467446
   5 C :    0.005608
   6 N :   -0.045380
   7 O :   -0.130049
   8 O :   -0.141453
   9 F :   -0.119496
  10 H :    0.287815
  11 H :    0.285566
  12 H :    0.303123
  13 C :   -0.445834
  14 H :    0.129723
  15 H :    0.129417
  16 H :    0.129660
  17 S :   -0.945062
Sum of atomic charges:   -1.0000000

--------------------------------
MULLIKEN REDUCED ORBITAL CHARGES
--------------------------------
  0 C s       :     3.265823  s :     3.265823
      pz      :     0.676037  p :     2.616612
      px      :     0.980382
      py      :     0.960193
      dz2     :     0.057453  d :     0.170634
      dxz     :     0.050611
      dyz     :     0.029540
      dx2y2   :     0.014731
      dxy     :     0.018300
  1 N s       :     3.609296  s :     3.609296
      pz      :     1.146681  p :     3.548538
      px      :     1.249148
      py      :     1.152710
      dz2     :     0.008751  d :     0.034574
      dxz     :     0.008567
      dyz     :     0.005130
      dx2y2   :     0.006168
      dxy     :     0.005957
  2 C s       :     3.333815  s :     3.333815
      pz      :     0.826354  p :     2.878430
      px      :     1.179515
      py      :     0.872561
      dz2     :     0.025154  d :     0.088359
      dxz     :     0.032945
      dyz     :     0.015735
      dx2y2   :     0.007902
      dxy     :     0.006624
  3 C s       :     3.271280  s :     3.271280
      pz      :     1.163218  p :     3.037596
      px      :     0.907043
      py      :     0.967335
      dz2     :     0.016062  d :     0.056126
      dxz     :     0.018690
      dyz     :     0.005925
      dx2y2   :     0.008041
      dxy     :     0.007407
  4 C s       :     2.479887  s :     2.479887
      pz      :     0.893788  p :     2.990175
      px      :     1.265857
      py      :     0.830530
      dz2     :     0.019135  d :     0.062492
      dxz     :     0.014935
      dyz     :     0.012291
      dx2y2   :     0.008871
      dxy     :     0.007260
  5 C s       :     3.246797  s :     3.246797
      pz      :     1.075833  p :     2.671566
      px      :     0.447958
      py      :     1.147775
      dz2     :     0.013534  d :     0.076029
      dxz     :     0.032152
      dyz     :     0.010957
      dx2y2   :     0.011182
      dxy     :     0.008204
  6 N s       :     3.501340  s :     3.501340
      pz      :     1.066150  p :     3.415852
      px      :     1.239588
      py      :     1.110114
      dz2     :     0.033819  d :     0.128188
      dxz     :     0.042906
      dyz     :     0.026398
      dx2y2   :     0.011343
      dxy     :     0.013722
  7 O s       :     3.794963  s :     3.794963
      pz      :     1.027679  p :     4.316826
      px      :     1.836080
      py      :     1.453067
      dz2     :     0.009701  d :     0.018259
      dxz     :     0.003306
      dyz     :     0.005075
      dx2y2   :     0.000106
      dxy     :     0.000072
  8 O s       :     3.786346  s :     3.786346
      pz      :     1.607114  p :     4.337718
      px      :     1.266176
      py      :     1.464428
      dz2     :     0.001829  d :     0.017389
      dxz     :     0.006314
      dyz     :     0.001478
      dx2y2   :     0.004166
      dxy     :     0.003602
  9 F s       :     3.918183  s :     3.918183
      pz      :     1.399779  p :     5.196084
      px      :     1.918392
      py      :     1.877912
      dz2     :     0.003046  d :     0.005229
      dxz     :     0.000973
      dyz     :     0.001171
      dx2y2   :     0.000029
      dxy     :     0.000010
 10 H s       :     0.688876  s :     0.688876
      pz      :     0.004534  p :     0.023309
      px      :     0.014406
      py      :     0.004368
 11 H s       :     0.689128  s :     0.689128
      pz      :     0.016498  p :     0.025306
      px      :     0.003805
      py      :     0.005004
 12 H s       :     0.667960  s :     0.667960
      pz      :     0.007587  p :     0.028917
      px      :     0.015988
      py      :     0.005342
 13 C s       :     3.304489  s :     3.304489
      pz      :     1.027395  p :     3.088711
      px      :     1.019498
      py      :     1.041817
      dz2     :     0.014314  d :     0.052634
      dxz     :     0.008930
      dyz     :     0.007170
      dx2y2   :     0.010657
      dxy     :     0.011563
 14 H s       :     0.847617  s :     0.847617
      pz      :     0.005845  p :     0.022660
      px      :     0.005047
      py      :     0.011768
 15 H s       :     0.847906  s :     0.847906
      pz      :     0.004682  p :     0.022676
      px      :     0.010917
      py      :     0.007077
 16 H s       :     0.847642  s :     0.847642
      pz      :     0.012043  p :     0.022699
      px      :     0.005870
      py      :     0.004786
 17 S s       :     5.985589  s :     5.985589
      pz      :     3.624121  p :    10.928100
      px      :     3.536958
      py      :     3.767020
      dz2     :     0.003221  d :     0.031374
      dxz     :     0.010811
      dyz     :     0.006168
      dx2y2   :     0.003524
      dxy     :     0.007651


                     *******************************
                     * LOEWDIN POPULATION ANALYSIS *
                     *******************************

------------------------
LOEWDIN FRAGMENT CHARGES
------------------------
 Fragment   0 :   0.044946
 Fragment   1 :  -0.067032
 Fragment   2 :  -0.351985
 Fragment   3 :  -0.625929

----------------------------
LOEWDIN FRAGMENT BOND ORDERS
----------------------------
                  0          1          2          3    
      0      57.164268   6.742966   0.004096   0.025635
      1       6.742966  44.132961   0.003648   0.025685
      2       0.004096   0.003648  15.408404   1.742932
      3       0.025635   0.025685   1.742932  16.625929

----------------------
LOEWDIN ATOMIC CHARGES
----------------------
   0 C :    0.085572
   1 N :   -0.079405
   2 C :    0.060440
   3 C :   -0.027467
   4 C :    0.068949
   5 C :   -0.063142
   6 N :    0.216437
   7 O :   -0.200485
   8 O :   -0.242023
   9 F :   -0.088070
  10 H :    0.083712
  11 H :    0.086851
  12 H :    0.076545
  13 C :   -0.357294
  14 H :    0.002217
  15 H :    0.001631
  16 H :    0.001461
  17 S :   -0.625929

-------------------------------
LOEWDIN REDUCED ORBITAL CHARGES
-------------------------------
  0 C s       :     2.730902  s :     2.730902
      pz      :     0.851444  p :     2.831839
      px      :     1.094582
      py      :     0.885814
      dz2     :     0.122392  d :     0.351687
      dxz     :     0.104118
      dyz     :     0.052321
      dx2y2   :     0.037272
      dxy     :     0.035585
  1 N s       :     3.111074  s :     3.111074
      pz      :     1.297638  p :     3.903481
      px      :     1.431817
      py      :     1.174026
      dz2     :     0.018987  d :     0.064851
      dxz     :     0.018157
      dyz     :     0.008951
      dx2y2   :     0.010788
      dxy     :     0.007967
  2 C s       :     2.774882  s :     2.774882
      pz      :     1.039404  p :     2.972653
      px      :     1.091534
      py      :     0.841715
      dz2     :     0.063870  d :     0.192024
      dxz     :     0.071802
      dyz     :     0.030343
      dx2y2   :     0.015104
      dxy     :     0.010905
  3 C s       :     2.770643  s :     2.770643
      pz      :     1.079293  p :     3.127483
      px      :     1.091178
      py      :     0.957011
      dz2     :     0.035279  d :     0.129342
      dxz     :     0.047446
      dyz     :     0.009192
      dx2y2   :     0.021779
      dxy     :     0.015646
  4 C s       :     2.750401  s :     2.750401
      pz      :     1.090686  p :     3.038495
      px      :     1.104944
      py      :     0.842865
      dz2     :     0.046621  d :     0.142156
      dxz     :     0.039838
      dyz     :     0.025066
      dx2y2   :     0.017674
      dxy     :     0.012958
  5 C s       :     2.745275  s :     2.745275
      pz      :     1.098979  p :     3.129627
      px      :     0.953978
      py      :     1.076670
      dz2     :     0.040538  d :     0.188240
      dxz     :     0.077504
      dyz     :     0.021547
      dx2y2   :     0.031052
      dxy     :     0.017599
  6 N s       :     3.014103  s :     3.014103
      pz      :     1.213881  p :     3.523001
      px      :     1.224846
      py      :     1.084274
      dz2     :     0.072543  d :     0.246459
      dxz     :     0.086057
      dyz     :     0.041503
      dx2y2   :     0.024049
      dxy     :     0.022307
  7 O s       :     3.575204  s :     3.575204
      pz      :     1.279823  p :     4.593478
      px      :     1.846117
      py      :     1.467539
      dz2     :     0.020375  d :     0.031802
      dxz     :     0.004925
      dyz     :     0.006294
      dx2y2   :     0.000130
      dxy     :     0.000077
  8 O s       :     3.583920  s :     3.583920
      pz      :     1.712325  p :     4.627748
      px      :     1.426923
      py      :     1.488500
      dz2     :     0.002785  d :     0.030356
      dxz     :     0.012709
      dyz     :     0.002039
      dx2y2   :     0.008056
      dxy     :     0.004766
  9 F s       :     3.713776  s :     3.713776
      pz      :     1.540055  p :     5.367036
      px      :     1.937270
      py      :     1.889712
      dz2     :     0.004694  d :     0.007257
      dxz     :     0.001171
      dyz     :     0.001342
      dx2y2   :     0.000039
      dxy     :     0.000010
 10 H s       :     0.847580  s :     0.847580
      pz      :     0.014166  p :     0.068709
      px      :     0.042728
      py      :     0.011815
 11 H s       :     0.840817  s :     0.840817
      pz      :     0.047647  p :     0.072332
      px      :     0.011284
      py      :     0.013401
 12 H s       :     0.840502  s :     0.840502
      pz      :     0.021952  p :     0.082953
      px      :     0.046769
      py      :     0.014232
 13 C s       :     2.858352  s :     2.858352
      pz      :     1.131902  p :     3.392076
      px      :     1.134873
      py      :     1.125301
      dz2     :     0.028291  d :     0.106866
      dxz     :     0.019154
      dyz     :     0.014615
      dx2y2   :     0.020999
      dxy     :     0.023808
 14 H s       :     0.926008  s :     0.926008
      pz      :     0.017710  p :     0.071775
      px      :     0.015572
      py      :     0.038493
 15 H s       :     0.926561  s :     0.926561
      pz      :     0.014131  p :     0.071808
      px      :     0.035979
      py      :     0.021698
 16 H s       :     0.926754  s :     0.926754
      pz      :     0.039631  p :     0.071785
      px      :     0.017907
      py      :     0.014247
 17 S s       :     5.606508  s :     5.606508
      pz      :     3.654487  p :    10.982202
      px      :     3.579931
      py      :     3.747784
      dz2     :     0.003616  d :     0.037219
      dxz     :     0.013029
      dyz     :     0.007378
      dx2y2   :     0.004011
      dxy     :     0.009185


                      *****************************
                      * MAYER POPULATION ANALYSIS *
                      *****************************

  NA   - Mulliken gross atomic population
  ZA   - Total nuclear charge
  QA   - Mulliken gross atomic charge
  VA   - Mayer's total valence
  BVA  - Mayer's bonded valence
  FA   - Mayer's free valence

  ATOM       NA         ZA         QA         VA         BVA        FA
  0 C      6.0531     6.0000    -0.0531     4.2819     4.2819     0.0000
  1 N      7.1924     7.0000    -0.1924     2.7370     2.7370    -0.0000
  2 C      6.3006     6.0000    -0.3006     4.0409     4.0409    -0.0000
  3 C      6.3650     6.0000    -0.3650     4.4981     4.4981     0.0000
  4 C      5.5326     6.0000     0.4674     4.0383     4.0383    -0.0000
  5 C      5.9944     6.0000     0.0056     3.2866     3.2866    -0.0000
  6 N      7.0454     7.0000    -0.0454     4.0279     4.0279    -0.0000
  7 O      8.1300     8.0000    -0.1300     2.1345     2.1345     0.0000
  8 O      8.1415     8.0000    -0.1415     2.1714     2.1714    -0.0000
  9 F      9.1195     9.0000    -0.1195     0.9264     0.9264    -0.0000
 10 H      0.7122     1.0000     0.2878     0.8707     0.8707    -0.0000
 11 H      0.7144     1.0000     0.2856     0.9022     0.9022    -0.0000
 12 H      0.6969     1.0000     0.3031     0.8555     0.8555    -0.0000
 13 C      6.4458     6.0000    -0.4458     3.6064     3.6064    -0.0000
 14 H      0.8703     1.0000     0.1297     0.9434     0.9434     0.0000
 15 H      0.8706     1.0000     0.1294     0.9391     0.9391    -0.0000
 16 H      0.8703     1.0000     0.1297     0.9357     0.9357    -0.0000
 17 S     16.9451    16.0000    -0.9451     0.6343     0.6343    -0.0000

  Mayer bond orders larger than 0.100000
B(  0-C ,  1-N ) :   1.2939 B(  0-C ,  2-C ) :   0.1549 B(  0-C ,  3-C ) :   0.2360 
B(  0-C ,  4-C ) :   0.2248 B(  0-C ,  5-C ) :   1.2293 B(  0-C ,  6-N ) :  -0.1542 
B(  0-C ,  8-O ) :  -0.1107 B(  0-C ,  9-F ) :   1.3859 B(  1-N ,  2-C ) :   1.1533 
B(  1-N ,  5-C ) :   0.2183 B(  2-C ,  3-C ) :   1.6914 B(  2-C ,  5-C ) :   0.1032 
B(  2-C , 10-H ) :   0.8850 B(  3-C ,  4-C ) :   1.3863 B(  3-C ,  8-O ) :   0.1578 
B(  3-C , 11-H ) :   0.8317 B(  4-C ,  5-C ) :   1.5698 B(  4-C ,  6-N ) :  -0.1388 
B(  4-C ,  8-O ) :   0.2760 B(  4-C ,  9-F ) :  -0.1511 B(  4-C , 12-H ) :   0.7615 
B(  5-C ,  6-N ) :   0.7104 B(  5-C ,  8-O ) :  -0.2636 B(  5-C ,  9-F ) :  -0.3490 
B(  5-C , 12-H ) :   0.1077 B(  6-N ,  7-O ) :   1.8185 B(  6-N ,  8-O ) :   1.8372 
B(  7-O ,  8-O ) :   0.2522 B( 13-C , 14-H ) :   0.9840 B( 13-C , 15-H ) :   0.9843 
B( 13-C , 16-H ) :   0.9836 B( 13-C , 17-S ) :   0.6539 

-------
TIMINGS
-------

Total SCF time: 0 days 0 hours 0 min 12 sec 

Total time                  ....      12.126 sec
Sum of individual times     ....      10.966 sec  ( 90.4%)

Fock matrix formation       ....       9.002 sec  ( 74.2%)
  Split-RI-J                ....       0.528 sec  (  5.9% of F)
  Chain of spheres X        ....       7.277 sec  ( 80.8% of F)
  XC integration            ....       0.561 sec  (  6.2% of F)
    Basis function eval.    ....       0.055 sec  (  9.8% of XC)
    Density eval.           ....       0.222 sec  ( 39.6% of XC)
    XC-Functional eval.     ....       0.026 sec  (  4.7% of XC)
    XC-Potential eval.      ....       0.058 sec  ( 10.4% of XC)
Diagonalization             ....       0.036 sec  (  0.3%)
Density matrix formation    ....       0.008 sec  (  0.1%)
Population analysis         ....       0.138 sec  (  1.1%)
Initial guess               ....       0.038 sec  (  0.3%)
Orbital Transformation      ....       0.000 sec  (  0.0%)
Orbital Orthonormalization  ....       0.019 sec  (  0.2%)
DIIS solution               ....       0.014 sec  (  0.1%)
SOSCF solution              ....       0.032 sec  (  0.3%)
Grid generation             ....       1.699 sec  ( 14.0%)

Maximum memory used throughout the entire SCF-calculation: 69.0 MB

-------------------------   --------------------
FINAL SINGLE POINT ENERGY      -990.258213047114
-------------------------   --------------------

                                *** OPTIMIZATION RUN DONE ***

                            ***************************************
                            *     ORCA property calculations      *
                            ***************************************

                                    ---------------------
                                    Active property flags
                                    ---------------------
   (+) Dipole Moment


------------------------------------------------------------------------------
                       ORCA ELECTRIC PROPERTIES CALCULATION
------------------------------------------------------------------------------

Dipole Moment Calculation                       ... on
Quadrupole Moment Calculation                   ... off
Polarizability Calculation                      ... off
GBWName                                         ... structure_opt.gbw
Electron density                                ... structure_opt.scfp
The origin for moment calculation is the CENTER OF MASS  = (-3.600210, -1.491162  5.511929)

-------------
DIPOLE MOMENT
-------------
                                X             Y             Z
Electronic contribution:     13.52688      12.68978     -13.43848
Nuclear contribution   :     -7.51459      -8.44724      14.32945
                        -----------------------------------------
Total Dipole Moment    :      6.01228       4.24254       0.89096
                        -----------------------------------------
Magnitude (a.u.)       :      7.41218
Magnitude (Debye)      :     18.84028



--------------------
Rotational spectrum 
--------------------
 
Rotational constants in cm-1:     0.035021     0.011236     0.009691 
Rotational constants in MHz :  1049.889461   336.835951   290.542709 

 Dipole components along the rotational axes: 
x,y,z [a.u.] :     6.587173     2.796026     1.931807 
x,y,z [Debye]:    16.743262     7.106934     4.910262 

 

Timings for individual modules:

Sum of individual times         ...     1023.708 sec (=  17.062 min)
GTO integral calculation        ...       65.340 sec (=   1.089 min)   6.4 %
SCF iterations                  ...      790.908 sec (=  13.182 min)  77.3 %
SCF Gradient evaluation         ...      166.496 sec (=   2.775 min)  16.3 %
Geometry relaxation             ...        0.964 sec (=   0.016 min)   0.1 %
                             ****ORCA TERMINATED NORMALLY****
TOTAL RUN TIME: 0 days 0 hours 18 minutes 5 seconds 890 msec
