
                                 *****************
                                 * O   R   C   A *
                                 *****************

                                            #,                                       
                                            ###                                      
                                            ####                                     
                                            #####                                    
                                            ######                                   
                                           ########,                                 
                                     ,,################,,,,,                         
                               ,,#################################,,                 
                          ,,##########################################,,             
                       ,#########################################, ''#####,          
                    ,#############################################,,   '####,        
                  ,##################################################,,,,####,       
                ,###########''''           ''''###############################       
              ,#####''   ,,,,##########,,,,          '''####'''          '####       
            ,##' ,,,,###########################,,,                        '##       
           ' ,,###''''                  '''############,,,                           
         ,,##''                                '''############,,,,        ,,,,,,###''
      ,#''                                            '''#######################'''  
     '                                                          ''''####''''         
             ,#######,   #######,   ,#######,      ##                                
            ,#'     '#,  ##    ##  ,#'     '#,    #''#        ######   ,####,        
            ##       ##  ##   ,#'  ##            #'  '#       #        #'  '#        
            ##       ##  #######   ##           ,######,      #####,   #    #        
            '#,     ,#'  ##    ##  '#,     ,#' ,#      #,         ##   #,  ,#        
             '#######'   ##     ##  '#######'  #'      '#     #####' # '####'        



                  #######################################################
                  #                        -***-                        #
                  #          Department of theory and spectroscopy      #
                  #    Directorship and core code : Frank Neese         #
                  #        Max Planck Institute fuer Kohlenforschung    #
                  #                Kaiser Wilhelm Platz 1               #
                  #                 D-45470 Muelheim/Ruhr               #
                  #                      Germany                        #
                  #                                                     #
                  #                  All rights reserved                #
                  #                        -***-                        #
                  #######################################################


                         Program Version 5.0.1 -  RELEASE  -


 With contributions from (in alphabetic order):
   Daniel Aravena         : Magnetic Suceptibility
   Michael Atanasov       : Ab Initio Ligand Field Theory (pilot matlab implementation)
   Alexander A. Auer      : GIAO ZORA, VPT2 properties, NMR spectrum
   Ute Becker             : Parallelization
   Giovanni Bistoni       : ED, misc. LED, open-shell LED, HFLD
   Martin Brehm           : Molecular dynamics
   Dmytro Bykov           : SCF Hessian
   Vijay G. Chilkuri      : MRCI spin determinant printing, contributions to CSF-ICE
   Dipayan Datta          : RHF DLPNO-CCSD density
   Achintya Kumar Dutta   : EOM-CC, STEOM-CC
   Dmitry Ganyushin       : Spin-Orbit,Spin-Spin,Magnetic field MRCI
   Miquel Garcia          : C-PCM and meta-GGA Hessian, CC/C-PCM, Gaussian charge scheme
   Yang Guo               : DLPNO-NEVPT2, F12-NEVPT2, CIM, IAO-localization
   Andreas Hansen         : Spin unrestricted coupled pair/coupled cluster methods
   Benjamin Helmich-Paris : MC-RPA, TRAH-SCF, COSX integrals
   Lee Huntington         : MR-EOM, pCC
   Robert Izsak           : Overlap fitted RIJCOSX, COSX-SCS-MP3, EOM
   Marcus Kettner         : VPT2
   Christian Kollmar      : KDIIS, OOCD, Brueckner-CCSD(T), CCSD density, CASPT2, CASPT2-K
   Simone Kossmann        : Meta GGA functionals, TD-DFT gradient, OOMP2, MP2 Hessian
   Martin Krupicka        : Initial AUTO-CI
   Lucas Lang             : DCDCAS
   Marvin Lechner         : AUTO-CI (C++ implementation), FIC-MRCC
   Dagmar Lenk            : GEPOL surface, SMD
   Dimitrios Liakos       : Extrapolation schemes; Compound Job, initial MDCI parallelization
   Dimitrios Manganas     : Further ROCIS development; embedding schemes
   Dimitrios Pantazis     : SARC Basis sets
   Anastasios Papadopoulos: AUTO-CI, single reference methods and gradients
   Taras Petrenko         : DFT Hessian,TD-DFT gradient, ASA, ECA, R-Raman, ABS, FL, XAS/XES, NRVS
   Peter Pinski           : DLPNO-MP2, DLPNO-MP2 Gradient
   Christoph Reimann      : Effective Core Potentials
   Marius Retegan         : Local ZFS, SOC
   Christoph Riplinger    : Optimizer, TS searches, QM/MM, DLPNO-CCSD(T), (RO)-DLPNO pert. Triples
   Tobias Risthaus        : Range-separated hybrids, TD-DFT gradient, RPA, STAB
   Michael Roemelt        : Original ROCIS implementation
   Masaaki Saitow         : Open-shell DLPNO-CCSD energy and density
   Barbara Sandhoefer     : DKH picture change effects
   Avijit Sen             : IP-ROCIS
   Kantharuban Sivalingam : CASSCF convergence, NEVPT2, FIC-MRCI
   Bernardo de Souza      : ESD, SOC TD-DFT
   Georgi Stoychev        : AutoAux, RI-MP2 NMR, DLPNO-MP2 response
   Willem Van den Heuvel  : Paramagnetic NMR
   Boris Wezisla          : Elementary symmetry handling
   Frank Wennmohs         : Technical directorship


 We gratefully acknowledge several colleagues who have allowed us to
 interface, adapt or use parts of their codes:
   Stefan Grimme, W. Hujo, H. Kruse, P. Pracht,  : VdW corrections, initial TS optimization,
                  C. Bannwarth, S. Ehlert          DFT functionals, gCP, sTDA/sTD-DF
   Ed Valeev, F. Pavosevic, A. Kumar             : LibInt (2-el integral package), F12 methods
   Garnet Chan, S. Sharma, J. Yang, R. Olivares  : DMRG
   Ulf Ekstrom                                   : XCFun DFT Library
   Mihaly Kallay                                 : mrcc  (arbitrary order and MRCC methods)
   Jiri Pittner, Ondrej Demel                    : Mk-CCSD
   Frank Weinhold                                : gennbo (NPA and NBO analysis)
   Christopher J. Cramer and Donald G. Truhlar   : smd solvation model
   Lars Goerigk                                  : TD-DFT with DH, B97 family of functionals
   V. Asgeirsson, H. Jonsson                     : NEB implementation
   FAccTs GmbH                                   : IRC, NEB, NEB-TS, DLPNO-Multilevel, CI-OPT
                                                   MM, QMMM, 2- and 3-layer-ONIOM, Crystal-QMMM,
                                                   LR-CPCM, SF, NACMEs, symmetry and pop. for TD-DFT,
                                                   nearIR, NL-DFT gradient (VV10), updates on ESD,
                                                   ML-optimized integration grids
   S Lehtola, MJT Oliveira, MAL Marques          : LibXC Library
   Liviu Ungur et al                             : ANISO software


 Your calculation uses the libint2 library for the computation of 2-el integrals
 For citations please refer to: http://libint.valeyev.net

 Your ORCA version has been built with support for libXC version: 5.1.0
 For citations please refer to: https://tddft.org/programs/libxc/

 This ORCA versions uses:
   CBLAS   interface :  Fast vector & matrix operations
   LAPACKE interface :  Fast linear algebra routines
   SCALAPACK package :  Parallel linear algebra routines
   Shared memory     :  Shared parallel matrices
   BLAS/LAPACK       :  OpenBLAS 0.3.15  USE64BITINT DYNAMIC_ARCH NO_AFFINITY SkylakeX SINGLE_THREADED
        Core in use  :  SkylakeX
   Copyright (c) 2011-2014, The OpenBLAS Project




***************************************
The coordinates will be read from file: structure_opt.xyz
***************************************


Your calculation utilizes the atom-pairwise dispersion correction
based on tight binding partial charges (D4)
Cite in your paper:
E.Caldeweyher, C.Bannwarth, S.Grimme, J.Chem.Phys., (2017), 147, 034112.
E.Caldeweyher, S.Ehlert, A.Hansen, H.Neugebauer, S.Grimme, J.Chem.Phys., (2018), in progress.
   

Your calculation utilizes the SMD solvation module
Please cite in your paper:
A.V. Marenich, C.J. Cramer, D.G. Truhlar J. Phys. Chem. B, 113, (2009), 6378 

XCFun DFT library Copyright 2009-2010 Ulf Ekstrom and contributors.
See http://admol.org/xcfun for more information.
This is free software; see the source code for copying conditions.
There is ABSOLUTELY NO WARRANTY; not even for MERCHANTABILITY or FITNESS FOR A PARTICULAR PURPOSE.
For details see the documentation.
Scientific users of this library should cite U. Ekstrom, L. Visscher, R. Bast, A. J. Thorvaldsen and K. Ruud;
J.Chem.Theor.Comp. 2010, DOI: 10.1021/ct100117s
XCFun Version 0.99 

Your calculation utilizes a Nudged-Elastic-Band implementation
 by V.Asgeirsson, C. Riplinger & H. Jonsson
Please cite in your paper:
 V. Asgeirsson et al., in prep. (2019)
   

================================================================================

----- Orbital basis set information -----
Your calculation utilizes the basis: 6-311++G**
   H, Li - Ne  : R. Krishnan, J. S. Binkley, R. Seeger and J. A. Pople, J. Chem. Phys. 72, 650 (1980).
   Na - Ar     : A. D. McLean and G. S. Chandler J. Chem. Phys. 72, 5639, (1980).
   K  - Ca     : J.-P. Blaudeau, M. P. McGrath, L. A. Curtiss and L. Radom, J. Chem. Phys. 107, 5016 (1997).
   Ga - Kr     : L. A. Curtiss, M. P. McGrath, J.-P. Blandeau, N. E. Davis, R. C. Binning and L. Radom, J. Chem. Phys. 103, 6104 (1995).
   Pol./Diff.
   H, Li - Cl  : T. Clark, J. Chandrasekhar and P. v. R. Schleyer, J. Comp. Chem. 4, 294 (1983).
   H - Ne      : M. J. Frisch, J. A. Pople and J. S. Binkley, J. Chem. Phys. 80, 3265 (1984).

----- AuxJ basis set information -----
Your calculation utilizes the auxiliary basis: def2/J
   F. Weigend, Phys. Chem. Chem. Phys. 8, 1057 (2006).

================================================================================
                                        WARNINGS
                       Please study these warnings very carefully!
================================================================================


WARNING: The environment variable RSH_COMMAND is not set!
  ===> : All Displacements for the Numerical Hessian calculation
         will be started on localhost

WARNING: Geometry Optimization
  ===> : Switching off AutoStart
         For restart on a previous wavefunction, please use MOREAD

INFO   : the flag for use of the SHARK integral package has been found!

================================================================================
                                       INPUT FILE
================================================================================
NAME = TS_search_opt_without_h.inp
|  1> !wb97x 6-311++G** D4 NEB-TS OPT NUMFREQ CPCM(WATER)
|  2> %maxcore  3500
|  3> %pal
|  4> nprocs 24
|  5> end
|  6> %cpcm
|  7> smd true
|  8> SMDsolvent "water"
|  9> end
| 10> %geom
| 11> MaxIter 1000   # allows for n optimization cycles
| 12> EnforceStrictConvergence False
| 13> end
| 14> %NEB NEB_END_XYZFILE "2f3_prod_opt.xyz" END
| 15> * XYZfile -1 1 structure_opt.xyz
| 16> 
| 17>                          ****END OF INPUT****
================================================================================


------------------------------------------------------------------------------- 
                         Nudged Elastic Band Calculation                       
------------------------------------------------------------------------------- 

Number of images (incl. end points)     ....  10
Number of intermediate images           ....  8
Number of optimized images              ....  8
Optimization of end points before NEB   ....  NO
Use existing gbw files for MO input     ....  NO
Number of atoms                         ....  18
Number of (active) degrees of freedom   ....  54
Constrained atoms                       ....  None

-----------------------------------------
  REACTANT (ANGSTROEM)
-----------------------------------------
C     -0.008196    -0.017649     1.866192 
N      1.112584    -0.216208     2.485615 
C      1.177910    -0.226124     3.822000 
C      0.071111    -0.030534     4.616450 
C     -1.120753     0.180420     3.953863 
C     -1.196621     0.192413     2.599623 
N     -2.459649     0.416861     1.944208 
O     -2.546949     0.432314     0.699387 
O     -3.507297     0.602624     2.622048 
F     -0.010850    -0.017032     0.516194 
H      2.160237    -0.397982     4.247817 
H      0.130913    -0.041503     5.696343 
H     -2.040413     0.343306     4.390860 
C     -5.715271    -4.161214     5.164461 
H     -5.943762    -5.149411     4.755550 
H     -6.638693    -3.579294     5.229253 
H     -5.298166    -4.280685     6.168291 
S     -4.527134    -3.316301     4.103847 

-----------------------------------------
  PRODUCT (ANGSTROEM)
-----------------------------------------
C     -0.006655     0.014080     1.789576 
N      1.150760    -0.163122     2.425247 
C      1.177726    -0.139964     3.759145 
C      0.054738     0.057580     4.546999 
C     -1.158972     0.233636     3.911162 
C     -1.178720     0.217442     2.525234 
N     -2.493686     0.427964     1.904940 
O     -2.584738     1.164910     0.947848 
O     -3.439094    -0.145340     2.414303 
F      3.139899     2.499865     0.919104 
H      2.152169    -0.281946     4.215772 
H      0.130494     0.071637     5.627108 
H     -2.077395     0.389730     4.465403 
C      0.049505     1.625975    -0.482258 
H     -0.875798     2.113075    -0.187252 
H      0.131238     1.624494    -1.570971 
H      0.921382     2.132605    -0.060262 
S      0.064147    -0.119619     0.009902 



----------------------
NEB settings
----------------------
Method type                             ....  climbing image
Threshold for climbing image            ....  2.00e-02 Eh/Bohr 
Free endpoints                          ....  off 
Tangent type                            ....  improved 
Number of intermediate images           ....  8 
Number of images free to move           ....  8 
Spring type for image distribution      ....  distance between adjacent images 
Spring constant                         ....  energy weighted (0.0100 -to- 0.1000) Eh/Bohr^2 
Spring force perp. to the path          ....  none 
Generation of initial path              ....  image dependent pair potential 
Initial path via TS guess               ....  off 

Minimization of RMSD: Rotation          ....  always 
Minimization of RMSD: Translation type  ....  centroid 
Center fixed to origin                  ....  true 
Remove external force                   ....  true 

Reparametrization of the path           ....  off 
Convergence thresholds:
Convergence monitored for               ....  all images
Scaling factor                          ....  10.00

Convergence parameters for regular images:
               Max(|Fp|)                ....  2.00e-02 Eh/Bohr
               RMS(Fp)                  ....  1.00e-02 Eh/Bohr

Convergence parameters for climbing image:
               Max(|F|)                 ....  2.00e-03 Eh/Bohr
               RMS(F)                   ....  1.00e-03 Eh/Bohr
Optimization method:
Method                                  ....  L-BFGS
Max. iterations                         ....  500 
Step size                               ....  1.00 
Maximum allowed step size               ....  0.10 Bohr

LBFGS parameters: 
               Memory                   ....  20 
               Initial step size        ....  0.0010 
               Estimate curvature       ....  YES 
               Reset on maxmove         ....  YES 
               Reparam. on reset        ....  NO 
Generation of  the initial path:
Minimize RMSD between reactant and product configurations     .... done
       RMSD before minimization         ....  5.7790 Bohr
       RMSD after minimization          ....  2.9553 Bohr
Performing linear interpolation         ....  done
Interpolation using                     ....  IDPP (Image Dependent Pair Potential)
IDPP-Settings:
       Remove global transl. and rot.   ...   true
       Convergence tolerance            ....  0.0100 1/Ang.^3
       Max. numer of iterations         ....    7000
       Spring constant                  ....  1.0000 1/Ang.^4
       Time step                        ....  0.0100 fs
       Max. movement per iteration      ....  0.0500 Ang.
       Full print                       ....  false 
idpp initial path generation successfully converged in 89 iterations
Displacement along initial path:             24.5464 Bohr
Writing initial trajectory to file      ....  TS_search_opt_without_h_initial_path_trj.xyz



----------------------
NEB OPTIMIZATION      
----------------------

Following output files will be written:
Energy profile during opt. written to    ....  TS_search_opt_without_h.interp
Optimization log-file                    ....  TS_search_opt_without_h.NEB.log
Current trajectory will be written to    ....  TS_search_opt_without_h_MEP_trj.xyz
       and to allxyz file                ....  TS_search_opt_without_h_MEP.allxyz
       and individual images to xyz file ....  TS_search_opt_without_h_im{NIm}.xyz
Trajectory history will be written to    ....  TS_search_opt_without_h_MEP_ALL_trj.xyz
Converged CI will be written to          ....  TS_search_opt_without_h_NEB-CI_converged.xyz
Converged TS will be written to          ....  TS_search_opt_without_h_NEB-TS_converged.xyz

Single point energy and gradient calculation of reactant and
product configurations (have to be performed only once)
Properties of fixed NEB end points:
               Reactant:
                         E               ....   -990.260945 Eh
                         RMS(F)          ....      0.017166 Eh/Bohr
                         MAX(|F|)        ....      0.068484 Eh/Bohr
      Warning: Reactant seems to be less converged than convergence tolerances.
               You might want to use free end NEB or preopt_ends true.
               Product:
                         E               ....   -990.305453 Eh
                         RMS(F)          ....      0.001258 Eh/Bohr
                         MAX(|F|)        ....      0.003588 Eh/Bohr



Starting iterations:

Optim.  Iteration  HEI  E(HEI)-E(0)  max(|Fp|)   RMS(Fp)    dS
Switch-on CI threshold               0.020000 
   LBFGS     0      4    0.166587    0.114508   0.020705  24.5464       
   LBFGS     1      5    0.145849    0.068533   0.010864  24.5301       
   LBFGS     2      5    0.142094    0.073685   0.012046  24.5105       
   LBFGS     3      4    0.143292    0.084522   0.011550  24.4826       
   LBFGS     4      4    0.145122    0.102420   0.013562  24.4743       
   LBFGS     5      4    0.135201    0.058163   0.008593  24.4745       
   LBFGS     6      4    0.138291    0.106679   0.012888  24.4718       
   LBFGS     7      4    0.138458    0.113960   0.014583  24.4808       
   LBFGS     8      4    0.132116    0.050808   0.007264  24.4723       
   LBFGS     9      4    0.132322    0.056437   0.008565  24.4746       
   LBFGS    10      4    0.134183    0.074806   0.011028  24.4920       
   LBFGS    11      4    0.133238    0.098890   0.010721  24.5108       
   LBFGS    12      5    0.130677    0.054365   0.009187  24.5190       
   LBFGS    13      5    0.129912    0.045903   0.008946  24.5569       
   LBFGS    14      5    0.129923    0.042943   0.008242  24.5706       
   LBFGS    15      5    0.129996    0.046516   0.009193  24.6034       
   LBFGS    16      5    0.130056    0.052908   0.009925  24.6699       
   LBFGS    17      5    0.128530    0.052707   0.008899  24.7064       
   LBFGS    18      5    0.126660    0.032081   0.006793  24.7280       
   LBFGS    19      5    0.125331    0.028914   0.005872  24.8249       
   LBFGS    20      5    0.125535    0.046800   0.008656  24.8865       
   LBFGS    21      5    0.124977    0.043909   0.008407  24.9512       
   LBFGS    22      5    0.123636    0.042318   0.008035  25.0861       
   LBFGS    23      5    0.122238    0.024068   0.005369  25.1045       
   LBFGS    24      5    0.121669    0.019154   0.004554  25.1295       

Image  5 will be converted to a climbing image in the next iteration (max(|Fp|) < 0.0200) 

Optim.  Iteration  CI   E(CI)-E(0)   max(|Fp|)   RMS(Fp)    dS     max(|FCI|)   RMS(FCI)
Convergence thresholds               0.020000   0.010000            0.002000    0.001000 
   LBFGS    25      5    0.121042    0.017338   0.003424  25.1532    0.007932    0.003049       
   LBFGS    26      5    0.120896    0.035151   0.006808  25.2418    0.017486    0.006693       
   LBFGS    27      5    0.120344    0.046974   0.008883  25.3759    0.024255    0.008908       
   LBFGS    28      5    0.118511    0.015140   0.003681  25.3892    0.008110    0.003931       
   LBFGS    29      5    0.118253    0.013648   0.003235  25.4079    0.008064    0.003350       
   LBFGS    30      5    0.117466    0.036476   0.004357  25.5223    0.011968    0.004394       
   LBFGS    31      5    0.116961    0.023710   0.003394  25.5421    0.012209    0.003502       
   LBFGS    32      5    0.116690    0.027751   0.003748  25.5745    0.014867    0.004096       
   LBFGS    33      5    0.115649    0.037535   0.005032  25.6889    0.018770    0.005364       
   LBFGS    34      5    0.114868    0.019546   0.003604  25.7065    0.011290    0.004241       

Possible intermediate minimum found at image(s): 1 
  => have a look at the .interp file.
  => it is often a good idea to divide the path calculation into smaller fragments. 

   LBFGS    35      5    0.114344    0.017267   0.002952  25.7226    0.008377    0.003404       
   LBFGS    36      5    0.112524    0.033111   0.004849  25.8228    0.012714    0.004809       
   LBFGS    37      5    0.111921    0.023154   0.003157  25.8348    0.010268    0.003353       
   LBFGS    38      5    0.111570    0.013442   0.002505  25.8438    0.008801    0.003191       
   LBFGS    39      5    0.108976    0.031685   0.004446  25.9244    0.009053    0.003052       
   LBFGS    40      5    0.108389    0.030400   0.003364  25.9324    0.009200    0.002894       
   LBFGS    41      5    0.107870    0.014381   0.002456  25.9423    0.009354    0.002810       
   LBFGS    42      5    0.105965    0.037582   0.004588  25.9846    0.009758    0.002961       
   LBFGS    43      5    0.102539    0.056654   0.006790  26.0792    0.010233    0.003426       
   LBFGS    44      5    0.102040    0.017142   0.002710  26.0798    0.010188    0.002885       
   LBFGS    45      5    0.101646    0.011082   0.001966  26.0799    0.010207    0.002857       
   LBFGS    46      5    0.099279    0.026269   0.003692  26.0913    0.010376    0.003042       
   LBFGS    47      5    0.095499    0.041719   0.005952  26.1343    0.010741    0.003444       
   LBFGS    48      5    0.094859    0.019007   0.003133  26.1416    0.010835    0.003136       
   LBFGS    49      5    0.094284    0.011610   0.002112  26.1513    0.010911    0.003120       
   LBFGS    50      5    0.092472    0.017266   0.002973  26.1820    0.011077    0.003239       
   LBFGS    51      5    0.087895    0.035375   0.005463  26.2678    0.011262    0.003643       
   LBFGS    52      5    0.087151    0.014807   0.002992  26.2572    0.011221    0.003343       
   LBFGS    53      5    0.086352    0.011749   0.002300  26.2537    0.011222    0.003308       
   LBFGS    54      5    0.083459    0.014389   0.003247  26.2667    0.011241    0.003519       
   LBFGS    55      5    0.078500    0.025161   0.004883  26.3313    0.011003    0.003905       
   LBFGS    56      5    0.077097    0.026522   0.003682  26.3750    0.011008    0.003494       
   LBFGS    57      5    0.076010    0.015713   0.002659  26.4021    0.010989    0.003536       
   LBFGS    58      5    0.074353    0.022269   0.003309  26.4368    0.011447    0.003627       
   LBFGS    59      5    0.068288    0.037135   0.005229  26.5686    0.013107    0.004065       
   LBFGS    60      5    0.067276    0.017147   0.003273  26.5550    0.013107    0.003877       
   LBFGS    61      5    0.066356    0.016180   0.002585  26.5553    0.013189    0.003861       
   LBFGS    62      5    0.060402    0.023961   0.003837  26.6242    0.013675    0.004295       
   LBFGS    63      5    0.053181    0.028576   0.005263  26.7788    0.014570    0.004607       
   LBFGS    64      5    0.051484    0.033199   0.004851  26.8131    0.014678    0.004128       
   LBFGS    65      5    0.050428    0.012777   0.002323  26.8366    0.014736    0.004085       
   LBFGS    66      5    0.048119    0.014884   0.002982  26.8953    0.014716    0.004150       
   LBFGS    67      5    0.042889    0.036260   0.005204  27.0380    0.014563    0.004244       
   LBFGS    68      5    0.035712    0.050033   0.006912  27.2774    0.014126    0.004232       
   LBFGS    69      5    0.034939    0.016821   0.003479  27.2701    0.013686    0.003778       
   LBFGS    70      5    0.034348    0.013353   0.002476  27.2714    0.013371    0.003592       
   LBFGS    71      5    0.031251    0.012974   0.003119  27.3187    0.011223    0.003476       
   LBFGS    72      5    0.029917    0.028040   0.004135  27.3492    0.010444    0.003152       
   LBFGS    73      5    0.029175    0.008848   0.001981  27.3722    0.009877    0.003080       
   LBFGS    74      5    0.028010    0.018406   0.002864  27.4125    0.009038    0.002991       
   LBFGS    75      5    0.023685    0.039788   0.005705  27.5949    0.007429    0.002747       
   LBFGS    76      5    0.023334    0.012917   0.002485  27.6028    0.007359    0.002538       
   LBFGS    77      5    0.023044    0.011068   0.002018  27.6108    0.007279    0.002472       
   LBFGS    78      5    0.019984    0.024963   0.003932  27.7584    0.006416    0.002754       
   LBFGS    79      5    0.019139    0.026438   0.004276  27.8000    0.006386    0.002310       
   LBFGS    80      5    0.018739    0.018209   0.002830  27.8298    0.006267    0.002216       
   LBFGS    81      5    0.018533    0.010818   0.002063  27.8413    0.006221    0.002174       
   LBFGS    82      5    0.015924    0.027135   0.003479  28.0207    0.005755    0.002370       
   LBFGS    83      5    0.015368    0.043542   0.005858  28.0510    0.005692    0.002198       
   LBFGS    84      5    0.015125    0.012861   0.001839  28.0719    0.005671    0.002045       
   LBFGS    85      5    0.014827    0.009191   0.001805  28.0918    0.005618    0.002025       
   LBFGS    86      5    0.013903    0.030273   0.003891  28.1650    0.005447    0.002051       
   LBFGS    87      5    0.012313    0.050259   0.006049  28.3167    0.005147    0.002110       
   LBFGS    88      5    0.012095    0.018610   0.002595  28.3582    0.005091    0.001930       
   LBFGS    89      5    0.011953    0.008190   0.001596  28.3691    0.005075    0.001897       
   LBFGS    90      5    0.010891    0.027404   0.003553  28.4700    0.004913    0.001944       
   LBFGS    91      5    0.010619    0.021885   0.003199  28.5244    0.004819    0.001897       
   LBFGS    92      5    0.010417    0.011088   0.001888  28.5553    0.004791    0.001846       
   LBFGS    93      5    0.009426    0.021212   0.003072  28.6996    0.004636    0.001871       
   LBFGS    94      5    0.008382    0.029310   0.004353  28.8697    0.004428    0.001932       
   LBFGS    95      5    0.008154    0.023838   0.003339  28.9066    0.004364    0.001820       
   LBFGS    96      5    0.008010    0.009699   0.001726  28.9195    0.004350    0.001755       
   LBFGS    97      5    0.007031    0.037521   0.004802  29.0405    0.004203    0.001914       
   LBFGS    98      5    0.006846    0.016312   0.002200  29.1163    0.004128    0.001741       

Possible intermediate minimum found at image(s): 2 
  => have a look at the .interp file.
  => it is often a good idea to divide the path calculation into smaller fragments. 

   LBFGS    99      5    0.006729    0.005422   0.001212  29.1242    0.004119    0.001699       
   LBFGS   100      5    0.006167    0.027884   0.003250  29.1763    0.004036    0.001760       
   LBFGS   101      5    0.005982    0.014934   0.002083  29.2145    0.003999    0.001703       
   LBFGS   102      5    0.004730    0.012361   0.001771  29.4406    0.003768    0.001668       
   LBFGS   103      5    0.004238    0.039376   0.004275  29.5177    0.003723    0.001723       
   LBFGS   104      5    0.004118    0.005539   0.001420  29.5426    0.003688    0.001616       
   LBFGS   105      5    0.003632    0.017791   0.002420  29.6385    0.003595    0.001642       
   LBFGS   106      5    0.002328    0.035149   0.004609  29.9206    0.003547    0.001740       
   LBFGS   107      5    0.002162    0.021275   0.002595  29.9448    0.003384    0.001586       
   LBFGS   108      5    0.002033    0.014633   0.001782  29.9674    0.003362    0.001534       
   LBFGS   109      5    0.001319    0.008478   0.001733  30.1221    0.003248    0.001562       
   LBFGS   110      5    0.000860    0.022755   0.003252  30.2480    0.003334    0.001594       
   LBFGS   111      5    0.000323    0.014485   0.003359  30.4276    0.003370    0.001802       
   LBFGS   112      5    -0.000505    0.019333   0.003915  30.7040    0.003285    0.001950       
   LBFGS   113      5    -0.000631    0.023146   0.003333  30.7062    0.003193    0.001671       
   LBFGS   114      5    -0.000738    0.016183   0.002491  30.7383    0.003224    0.001521       
   LBFGS   115      5    -0.001204    0.011481   0.001831  30.9408    0.003260    0.001413       
   LBFGS   116      5    -0.001485    0.024836   0.003944  31.0806    0.003240    0.001431       
   LBFGS   117      5    -0.001759    0.026537   0.003774  31.2112    0.003232    0.001427       
   LBFGS   118      5    -0.002315    0.023435   0.003726  31.4657    0.003222    0.001417       
   LBFGS   119      5    -0.002429    0.011380   0.002186  31.4984    0.003244    0.001364       
   LBFGS   120      5    -0.002552    0.012348   0.002335  31.5432    0.003260    0.001353       
   LBFGS   121      5    -0.003120    0.024109   0.003308  31.7805    0.003335    0.001398       
   LBFGS   122      5    -0.003285    0.019213   0.003263  31.8392    0.003370    0.001339       
   LBFGS   123      5    -0.003448    0.021834   0.002924  31.9052    0.003421    0.001331       
   LBFGS   124      5    -0.004024    0.019118   0.002645  32.1897    0.003616    0.001407       
   LBFGS   125      5    -0.004217    0.021844   0.002919  32.2789    0.003734    0.001304       
   LBFGS   126      5    -0.004390    0.021152   0.002575  32.3709    0.003842    0.001320       
   LBFGS   127      5    -0.004960    0.016371   0.003042  32.7136    0.004248    0.001568       
   LBFGS   128      5    -0.005203    0.016700   0.002119  32.8249    0.004427    0.001289       
   LBFGS   129      5    -0.005407    0.010348   0.001759  32.9386    0.004615    0.001365       

Possible intermediate minimum found at image(s): 2 
  => have a look at the .interp file.
  => it is often a good idea to divide the path calculation into smaller fragments. 

   LBFGS   130      5    -0.006027    0.013341   0.002133  33.3120    0.005248    0.001631       
   LBFGS   131      5    -0.006390    0.014888   0.002236  33.5015    0.005694    0.001582       
   LBFGS   132      5    -0.006746    0.015265   0.002404  33.7008    0.006145    0.001733       
   LBFGS   133      5    -0.007478    0.018197   0.002731  34.1122    0.007023    0.001918       
   LBFGS   134      5    -0.007832    0.012538   0.001935  34.2379    0.007405    0.001577       
   LBFGS   135      5    -0.008108    0.011600   0.001905  34.3735    0.007739    0.001721       
   LBFGS   136      5    -0.008846    0.023128   0.003555  34.7322    0.008615    0.001986       
   LBFGS   137      5    -0.009752    0.031255   0.004647  35.1674    0.009593    0.002212       
   LBFGS   138      5    -0.009983    0.021532   0.002327  35.2187    0.009842    0.001959       
   LBFGS   139      5    -0.010147    0.008078   0.001315  35.2705    0.010004    0.001926       
   LBFGS   140      5    -0.010789    0.010696   0.001853  35.5042    0.010695    0.002159       
   LBFGS   141      5    -0.011899    0.025364   0.003258  35.8968    0.012045    0.002574       
   LBFGS   142      5    -0.013369    0.032537   0.004103  36.3738    0.013735    0.003015       
   LBFGS   143      5    -0.013888    0.026532   0.002829  36.4434    0.014219    0.002818       
   LBFGS   144      5    -0.014303    0.010824   0.001252  36.5157    0.014518    0.002852       
   LBFGS   145      5    -0.015368    0.006989   0.001486  36.7176    0.014787    0.002997       
   LBFGS   146      5    -0.017590    0.023200   0.003171  37.1588    0.013214    0.002952       
   LBFGS   147      5    -0.019312    0.032373   0.004006  37.6176    0.005154    0.002139       
   LBFGS   148      5    -0.019552    0.025160   0.002560  37.6413    0.004265    0.001768       
   LBFGS   149      5    -0.019719    0.010834   0.001208  37.6693    0.003740    0.001610       
   LBFGS   150      5    -0.020067    0.004703   0.001002  37.7518    0.003600    0.001437       
   LBFGS   151      5    -0.020524    0.016390   0.001912  37.8901    0.004003    0.001358       
   LBFGS   152      5    -0.021070    0.021927   0.002757  38.1289    0.004735    0.001584       
   LBFGS   153      5    -0.021222    0.019576   0.002024  38.1473    0.003893    0.001356       
   LBFGS   154      5    -0.021342    0.009960   0.001109  38.1675    0.003501    0.001259       
   LBFGS   155      5    -0.021648    0.004781   0.001071  38.2360    0.003104    0.001208       
   LBFGS   156      5    -0.022066    0.015508   0.002060  38.3663    0.003057    0.001364       
   LBFGS   157      5    -0.022507    0.023018   0.002767  38.5542    0.004986    0.001689       
   LBFGS   158      5    -0.022690    0.022301   0.002193  38.5810    0.003714    0.001399       
   LBFGS   159      5    -0.022826    0.008714   0.001067  38.6095    0.003263    0.001228       
   LBFGS   160      5    -0.023078    0.004139   0.000924  38.6834    0.003335    0.001077       

Possible intermediate minimum found at image(s): 2 
  => have a look at the .interp file.
  => it is often a good idea to divide the path calculation into smaller fragments. 

   LBFGS   161      5    -0.023378    0.016378   0.001684  38.8081    0.003627    0.001179       
   LBFGS   162      5    -0.023764    0.020285   0.002455  39.0471    0.006738    0.001698       
   LBFGS   163      5    -0.023945    0.017920   0.001915  39.0615    0.004772    0.001368       
   LBFGS   164      5    -0.024077    0.010386   0.001198  39.0779    0.003652    0.001160       
Warning: path is strictly decreasing in energy   LBFGS   165      5    -0.024379    0.004170   0.000899  39.1518    0.003335    0.001021       
   LBFGS   166      5    -0.024613    0.012835   0.001676  39.2601    0.003507    0.001295       
   LBFGS   167      5    -0.024877    0.018239   0.002287  39.4692    0.007055    0.001869       
   LBFGS   168      5    -0.025123    0.024257   0.002114  39.5003    0.005108    0.001447       
Warning: path is strictly decreasing in energy   LBFGS   169      5    -0.025274    0.012122   0.001152  39.5292    0.003534    0.001175       
Warning: path is strictly decreasing in energy   LBFGS   170      5    -0.025531    0.003476   0.000735  39.6212    0.003147    0.000882       
Warning: path is strictly decreasing in energy   LBFGS   171      5    -0.025676    0.011204   0.001159  39.7173    0.003466    0.001039       
   LBFGS   172      5    -0.025854    0.016460   0.001788  39.9792    0.008124    0.001810       
   LBFGS   173      5    -0.026079    0.016308   0.001687  39.9900    0.005309    0.001331       
Warning: path is strictly decreasing in energy   LBFGS   174      5    -0.026209    0.010821   0.001095  40.0029    0.003580    0.001034       
Warning: path is strictly decreasing in energy   LBFGS   175      5    -0.026429    0.003753   0.000709  40.0792    0.002887    0.000905       
Warning: path is strictly decreasing in energy   LBFGS   176      5    -0.026507    0.010765   0.001211  40.1722    0.004420    0.001244       
   LBFGS   177      5    -0.026548    0.016158   0.001810  40.4113    0.008181    0.001983       
   LBFGS   178      5    -0.026804    0.015331   0.001576  40.4444    0.006137    0.001527       
Warning: path is strictly decreasing in energy   LBFGS   179      5    -0.026979    0.010171   0.001111  40.4761    0.004220    0.001161       
Warning: path is strictly decreasing in energy   LBFGS   180      5    -0.027238    0.008562   0.000937  40.6235    0.003031    0.000916       
   LBFGS   181      5    -0.027228    0.013557   0.001501  40.7513    0.005966    0.001445       
   LBFGS   182      5    -0.027257    0.013512   0.001415  40.8538    0.007030    0.001643       
   LBFGS   183      5    -0.027392    0.011316   0.001312  41.1469    0.008452    0.001950       
   LBFGS   184      5    -0.027651    0.012920   0.001280  41.1569    0.005571    0.001401       
   LBFGS   185      5    -0.027797    0.008914   0.000899  41.1689    0.003480    0.001016       
   LBFGS   186      5    -0.027935    0.005847   0.000754  41.2575    0.003172    0.000936       
   LBFGS   187      5    -0.027847    0.011920   0.001424  41.3607    0.005614    0.001481       
   LBFGS   188      5    -0.027812    0.011650   0.001389  41.4658    0.006567    0.001731       
   LBFGS   189      5    -0.027822    0.011242   0.001376  41.7919    0.008043    0.002108       
   LBFGS   190      5    -0.028084    0.008530   0.001045  41.8187    0.006315    0.001672       
   LBFGS   191      5    -0.028272    0.006471   0.000849  41.8456    0.004696    0.001286       
   LBFGS   192      5    -0.028486    0.012473   0.001489  42.0337    0.003940    0.001144       
   LBFGS   193      5    -0.028323    0.011423   0.001204  42.1403    0.006894    0.001641       
   LBFGS   194      5    -0.028459    0.006346   0.000711  42.1439    0.005226    0.001295       
   LBFGS   195      5    -0.028712    0.007520   0.000849  42.3198    0.002268    0.000808       
   LBFGS   196      5    -0.028869    0.015475   0.001731  42.6954    0.002707    0.001059       
   LBFGS   197      5    -0.028911    0.003008   0.000509  42.7053    0.002268    0.000813       
   LBFGS   198      5    -0.028939    0.002377   0.000440  42.7155    0.001902    0.000696       

                                .--------------------.
          ----------------------| CI-NEB convergence |-------------------------
          Item                value                   Tolerance       Converged
          ---------------------------------------------------------------------
          RMS(Fp)             0.0004398895            0.0100000000      YES
          MAX(|Fp|)           0.0023769982            0.0200000000      YES
          RMS(FCI)            0.0006961964            0.0010000000      YES
          MAX(|FCI|)          0.0019020023            0.0020000000      YES
          ---------------------------------------------------------------------

The elastic band and climbing image have converged successfully to a MEP in 198 iterations!


                    *********************H U R R A Y*********************
                    ***        THE NEB OPTIMIZATION HAS CONVERGED     ***
                    *****************************************************



---------------------------------------------------------------
                         PATH SUMMARY              
---------------------------------------------------------------
All forces in Eh/Bohr.

Image Dist.(Ang.)    E(Eh)   dE(kcal/mol)  max(|Fp|)  RMS(Fp)
  0     0.000    -990.26094      0.00       0.06795   0.01715 <= CI
  1     2.284    -990.27604     -9.47       0.00022   0.00010
  2     4.525    -990.27824    -10.86       0.00100   0.00026
  3     6.687    -990.27856    -11.06       0.00213   0.00052
  4     8.777    -990.27598     -9.43       0.00238   0.00088
  5    10.841    -990.28988    -18.16       0.00187   0.00070
  6    13.505    -990.30259    -26.13       0.00149   0.00067
  7    16.398    -990.30280    -26.26       0.00072   0.00038
  8    19.551    -990.30428    -27.19       0.00047   0.00018
  9    22.604    -990.30545    -27.93       0.00338   0.00124

Straight line distance between images along the path:
        D( 0- 1) =   2.2843 Ang.
        D( 1- 2) =   2.2403 Ang.
        D( 2- 3) =   2.1624 Ang.
        D( 3- 4) =   2.0897 Ang.
        D( 4- 5) =   2.0645 Ang.
        D( 5- 6) =   2.6636 Ang.
        D( 6- 7) =   2.8928 Ang.
        D( 7- 8) =   3.1532 Ang.
        D( 8- 9) =   3.0532 Ang.

---------------------------------------------------------------
               INFORMATION ABOUT SADDLE POINT     
---------------------------------------------------------------

Climbing image                            ....  0 
Energy                                    ....  -990.26094482 Eh
Max. abs. force                           ....  6.8484e-02 Eh/Bohr

-----------------------------------------
  SADDLE POINT (ANGSTROEM)
-----------------------------------------
C      2.011860     1.052684    -1.738364 
N      3.132639     0.854125    -1.118941 
C      3.197966     0.844209     0.217444 
C      2.091166     1.039799     1.011894 
C      0.899302     1.250753     0.349307 
C      0.823435     1.262747    -1.004933 
N     -0.439593     1.487194    -1.660347 
O     -0.526893     1.502648    -2.905169 
O     -1.487242     1.672957    -0.982508 
F      2.009205     1.053301    -3.088361 
H      4.180292     0.672352     0.643261 
H      2.150968     1.028830     2.091787 
H     -0.020357     1.413639     0.786304 
C     -3.695215    -3.090881     1.559905 
H     -3.923707    -4.079077     1.150995 
H     -4.618637    -2.508961     1.624697 
H     -3.278110    -3.210352     2.563736 
S     -2.507079    -2.245968     0.499291 

-----------------------------------------
  FORCES (Eh/Bohr)
-----------------------------------------
C     -0.012166     0.001807     0.005631 
N      0.010741    -0.001737    -0.020050 
C     -0.000060    -0.000167    -0.000009 
C      0.000000    -0.000055    -0.000052 
C      0.012381    -0.002397    -0.000742 
C      0.016773    -0.002752    -0.039005 
N     -0.068484     0.012061    -0.026917 
O      0.017075    -0.003090     0.041401 
O      0.049824    -0.008791    -0.011731 
F      0.007430    -0.001383     0.019714 
H      0.000015    -0.000015    -0.000006 
H      0.000025     0.000052    -0.000002 
H     -0.033894     0.005916     0.031978 
C     -0.001107    -0.000924     0.001475 
H     -0.002868    -0.000696     0.003369 
H     -0.001808    -0.003117     0.002666 
H     -0.003950    -0.002088     0.001387 
S      0.010320     0.007604    -0.009149 

-----------------------------------------
  UNIT TANGENT
-----------------------------------------
C     -0.140678    -0.216280     0.073235 
N     -0.121897    -0.236441     0.036847 
C     -0.071946    -0.089748     0.014822 
C     -0.018823     0.077706     0.009241 
C     -0.035968     0.096763     0.045382 
C     -0.086492    -0.054946     0.055191 
N     -0.100682    -0.030094     0.071654 
O     -0.127208    -0.138576     0.098479 
O     -0.023424     0.090999     0.085635 
F     -0.190752    -0.368381     0.104006 
H     -0.072721    -0.108163     0.008550 
H      0.039558     0.190899    -0.010069 
H      0.012709     0.225705     0.097764 
C      0.193568     0.103177    -0.151650 
H      0.205891     0.173547    -0.273829 
H      0.175379     0.044791    -0.067427 
H      0.190544    -0.033815    -0.189196 
S      0.172942     0.272858    -0.008634 
 => Unit tangent is an approximation to the TS mode at the saddle point
No barrier was found. Skipping NEB-TS run here.
----------
STATISTICS
----------

For the individual parts of the NEB, NEB-CI or NEB-TS run:

Number of iterations:
     NEB                               ... 199  100.0%
Number of SCF / gradient calculations:
     NEB                               ... 2018  100.0%

----------
 TIMINGS
----------

For the individual parts of the NEB, NEB-CI or NEB-TS run:

Total                                  ...    57026.271 sec
NEB                                    ...    57026.271 sec  100.0%

[file orca_main/run.cpp, line 12281]: ORCA finished with error return - aborting the run
