
                                 *****************
                                 * O   R   C   A *
                                 *****************

                                            #,                                       
                                            ###                                      
                                            ####                                     
                                            #####                                    
                                            ######                                   
                                           ########,                                 
                                     ,,################,,,,,                         
                               ,,#################################,,                 
                          ,,##########################################,,             
                       ,#########################################, ''#####,          
                    ,#############################################,,   '####,        
                  ,##################################################,,,,####,       
                ,###########''''           ''''###############################       
              ,#####''   ,,,,##########,,,,          '''####'''          '####       
            ,##' ,,,,###########################,,,                        '##       
           ' ,,###''''                  '''############,,,                           
         ,,##''                                '''############,,,,        ,,,,,,###''
      ,#''                                            '''#######################'''  
     '                                                          ''''####''''         
             ,#######,   #######,   ,#######,      ##                                
            ,#'     '#,  ##    ##  ,#'     '#,    #''#        ######   ,####,        
            ##       ##  ##   ,#'  ##            #'  '#       #        #'  '#        
            ##       ##  #######   ##           ,######,      #####,   #    #        
            '#,     ,#'  ##    ##  '#,     ,#' ,#      #,         ##   #,  ,#        
             '#######'   ##     ##  '#######'  #'      '#     #####' # '####'        



                  #######################################################
                  #                        -***-                        #
                  #          Department of theory and spectroscopy      #
                  #    Directorship and core code : Frank Neese         #
                  #        Max Planck Institute fuer Kohlenforschung    #
                  #                Kaiser Wilhelm Platz 1               #
                  #                 D-45470 Muelheim/Ruhr               #
                  #                      Germany                        #
                  #                                                     #
                  #                  All rights reserved                #
                  #                        -***-                        #
                  #######################################################


                         Program Version 5.0.4 -  RELEASE  -


 With contributions from (in alphabetic order):
   Daniel Aravena         : Magnetic Suceptibility
   Michael Atanasov       : Ab Initio Ligand Field Theory (pilot matlab implementation)
   Alexander A. Auer      : GIAO ZORA, VPT2 properties, NMR spectrum
   Ute Becker             : Parallelization
   Giovanni Bistoni       : ED, misc. LED, open-shell LED, HFLD
   Martin Brehm           : Molecular dynamics
   Dmytro Bykov           : SCF Hessian
   Vijay G. Chilkuri      : MRCI spin determinant printing, contributions to CSF-ICE
   Dipayan Datta          : RHF DLPNO-CCSD density
   Achintya Kumar Dutta   : EOM-CC, STEOM-CC
   Dmitry Ganyushin       : Spin-Orbit,Spin-Spin,Magnetic field MRCI
   Miquel Garcia          : C-PCM and meta-GGA Hessian, CC/C-PCM, Gaussian charge scheme
   Yang Guo               : DLPNO-NEVPT2, F12-NEVPT2, CIM, IAO-localization
   Andreas Hansen         : Spin unrestricted coupled pair/coupled cluster methods
   Benjamin Helmich-Paris : MC-RPA, TRAH-SCF, COSX integrals
   Lee Huntington         : MR-EOM, pCC
   Robert Izsak           : Overlap fitted RIJCOSX, COSX-SCS-MP3, EOM
   Marcus Kettner         : VPT2
   Christian Kollmar      : KDIIS, OOCD, Brueckner-CCSD(T), CCSD density, CASPT2, CASPT2-K
   Simone Kossmann        : Meta GGA functionals, TD-DFT gradient, OOMP2, MP2 Hessian
   Martin Krupicka        : Initial AUTO-CI
   Lucas Lang             : DCDCAS
   Marvin Lechner         : AUTO-CI (C++ implementation), FIC-MRCC
   Dagmar Lenk            : GEPOL surface, SMD
   Dimitrios Liakos       : Extrapolation schemes; Compound Job, initial MDCI parallelization
   Dimitrios Manganas     : Further ROCIS development; embedding schemes
   Dimitrios Pantazis     : SARC Basis sets
   Anastasios Papadopoulos: AUTO-CI, single reference methods and gradients
   Taras Petrenko         : DFT Hessian,TD-DFT gradient, ASA, ECA, R-Raman, ABS, FL, XAS/XES, NRVS
   Peter Pinski           : DLPNO-MP2, DLPNO-MP2 Gradient
   Christoph Reimann      : Effective Core Potentials
   Marius Retegan         : Local ZFS, SOC
   Christoph Riplinger    : Optimizer, TS searches, QM/MM, DLPNO-CCSD(T), (RO)-DLPNO pert. Triples
   Tobias Risthaus        : Range-separated hybrids, TD-DFT gradient, RPA, STAB
   Michael Roemelt        : Original ROCIS implementation
   Masaaki Saitow         : Open-shell DLPNO-CCSD energy and density
   Barbara Sandhoefer     : DKH picture change effects
   Avijit Sen             : IP-ROCIS
   Kantharuban Sivalingam : CASSCF convergence, NEVPT2, FIC-MRCI
   Bernardo de Souza      : ESD, SOC TD-DFT
   Georgi Stoychev        : AutoAux, RI-MP2 NMR, DLPNO-MP2 response
   Willem Van den Heuvel  : Paramagnetic NMR
   Boris Wezisla          : Elementary symmetry handling
   Frank Wennmohs         : Technical directorship


 We gratefully acknowledge several colleagues who have allowed us to
 interface, adapt or use parts of their codes:
   Stefan Grimme, W. Hujo, H. Kruse, P. Pracht,  : VdW corrections, initial TS optimization,
                  C. Bannwarth, S. Ehlert          DFT functionals, gCP, sTDA/sTD-DF
   Ed Valeev, F. Pavosevic, A. Kumar             : LibInt (2-el integral package), F12 methods
   Garnet Chan, S. Sharma, J. Yang, R. Olivares  : DMRG
   Ulf Ekstrom                                   : XCFun DFT Library
   Mihaly Kallay                                 : mrcc  (arbitrary order and MRCC methods)
   Jiri Pittner, Ondrej Demel                    : Mk-CCSD
   Frank Weinhold                                : gennbo (NPA and NBO analysis)
   Christopher J. Cramer and Donald G. Truhlar   : smd solvation model
   Lars Goerigk                                  : TD-DFT with DH, B97 family of functionals
   V. Asgeirsson, H. Jonsson                     : NEB implementation
   FAccTs GmbH                                   : IRC, NEB, NEB-TS, DLPNO-Multilevel, CI-OPT
                                                   MM, QMMM, 2- and 3-layer-ONIOM, Crystal-QMMM,
                                                   LR-CPCM, SF, NACMEs, symmetry and pop. for TD-DFT,
                                                   nearIR, NL-DFT gradient (VV10), updates on ESD,
                                                   ML-optimized integration grids
   S Lehtola, MJT Oliveira, MAL Marques          : LibXC Library
   Liviu Ungur et al                             : ANISO software


 Your calculation uses the libint2 library for the computation of 2-el integrals
 For citations please refer to: http://libint.valeyev.net

 Your ORCA version has been built with support for libXC version: 5.1.0
 For citations please refer to: https://tddft.org/programs/libxc/

 This ORCA versions uses:
   CBLAS   interface :  Fast vector & matrix operations
   LAPACKE interface :  Fast linear algebra routines
   SCALAPACK package :  Parallel linear algebra routines
   Shared memory     :  Shared parallel matrices
   BLAS/LAPACK       :  OpenBLAS 0.3.15  USE64BITINT DYNAMIC_ARCH NO_AFFINITY SkylakeX SINGLE_THREADED
        Core in use  :  SkylakeX
   Copyright (c) 2011-2014, The OpenBLAS Project




***************************************
The coordinates will be read from file: reactants.xyz
***************************************


Your calculation utilizes the SMD solvation module
Please cite in your paper:
A.V. Marenich, C.J. Cramer, D.G. Truhlar J. Phys. Chem. B, 113, (2009), 6378 

XCFun DFT library Copyright 2009-2010 Ulf Ekstrom and contributors.
See http://admol.org/xcfun for more information.
This is free software; see the source code for copying conditions.
There is ABSOLUTELY NO WARRANTY; not even for MERCHANTABILITY or FITNESS FOR A PARTICULAR PURPOSE.
For details see the documentation.
Scientific users of this library should cite U. Ekstrom, L. Visscher, R. Bast, A. J. Thorvaldsen and K. Ruud;
J.Chem.Theor.Comp. 2010, DOI: 10.1021/ct100117s
XCFun Version 0.99 

================================================================================

----- Orbital basis set information -----
Your calculation utilizes the basis: 6-311++G**
   H, Li - Ne  : R. Krishnan, J. S. Binkley, R. Seeger and J. A. Pople, J. Chem. Phys. 72, 650 (1980).
   Na - Ar     : A. D. McLean and G. S. Chandler J. Chem. Phys. 72, 5639, (1980).
   K  - Ca     : J.-P. Blaudeau, M. P. McGrath, L. A. Curtiss and L. Radom, J. Chem. Phys. 107, 5016 (1997).
   Ga - Kr     : L. A. Curtiss, M. P. McGrath, J.-P. Blandeau, N. E. Davis, R. C. Binning and L. Radom, J. Chem. Phys. 103, 6104 (1995).
   Pol./Diff.
   H, Li - Cl  : T. Clark, J. Chandrasekhar and P. v. R. Schleyer, J. Comp. Chem. 4, 294 (1983).
   H - Ne      : M. J. Frisch, J. A. Pople and J. S. Binkley, J. Chem. Phys. 80, 3265 (1984).

----- AuxJ basis set information -----
Your calculation utilizes the auxiliary basis: def2/J
   F. Weigend, Phys. Chem. Chem. Phys. 8, 1057 (2006).

================================================================================
                                        WARNINGS
                       Please study these warnings very carefully!
================================================================================


WARNING: Geometry Optimization
  ===> : Switching off AutoStart
         For restart on a previous wavefunction, please use MOREAD

INFO   : the flag for use of the SHARK integral package has been found!

================================================================================
                                       INPUT FILE
================================================================================
NAME = structure_opt.inp
|  1> !wb97x 6-311++G** OPT CPCM(WATER)
|  2> %maxcore  3500
|  3> %pal
|  4> nprocs 24
|  5> end
|  6> %cpcm
|  7> smd true
|  8> SMDsolvent "water"
|  9> end
| 10> %geom
| 11> ConstrainFragments {1} end
| 12> ConstrainFragments {4} end
| 13> ConnectFragments
| 14> { 1 2 C 5 7 }
| 15> { 1 2 C 0 9 }
| 16> { 2 3 C 13 5 }
| 17> { 3 4 C 13 17 }
| 18> end
| 19> end
| 20> * XYZfile -1 1 reactants.xyz
| 21> %geom
| 22> Fragments
| 23> 1 {0:5} end
| 24> 2 {6:12} end
| 25> 3 {13:16} end
| 26> 4 {17} end
| 27> end
| 28> end
| 29> 
| 30>                          ****END OF INPUT****
================================================================================

                       *****************************
                       * Geometry Optimization Run *
                       *****************************

Geometry optimization settings:
Update method            Update   .... BFGS
Choice of coordinates    CoordSys .... Z-matrix Internals
Initial Hessian          InHess   .... Almoef's Model

Convergence Tolerances:
Energy Change            TolE     ....  5.0000e-06 Eh
Max. Gradient            TolMAXG  ....  3.0000e-04 Eh/bohr
RMS Gradient             TolRMSG  ....  1.0000e-04 Eh/bohr
Max. Displacement        TolMAXD  ....  4.0000e-03 bohr
RMS Displacement         TolRMSD  ....  2.0000e-03 bohr
Strict Convergence                ....  False
------------------------------------------------------------------------------
                        ORCA OPTIMIZATION COORDINATE SETUP
------------------------------------------------------------------------------

The optimization will be done in new redundant internal coordinates
Making redundant internal coordinates   ...  (new redundants) done
Evaluating the initial hessian          ...  (Almloef) done
Evaluating the coordinates              ...  done
Calculating the B-matrix                .... done
Calculating the G-matrix                .... done
Diagonalizing the G-matrix              .... done
Imposing constraints:
 Iter   0:  RMS(Cart)=    0.0000000000 RMS(Int)=    0.0000000000
CONVERGED
Small eigenvalue found = 1.125e-02
Small eigenvalue found = 2.764e-02
The first mode is                       ....   72
The number of degrees of freedom        ....   48
Storing new coordinates                 .... done

    -----------------------------------------------------------------
                    Redundant Internal Coordinates


    -----------------------------------------------------------------
         Definition                    Initial Value    Approx d2E/dq
    -----------------------------------------------------------------
      1. B(N   1,C   0)                  1.3611         0.622347   
      2. B(C   2,N   1)                  1.3582         0.628875   
      3. B(C   3,C   2)                  1.3949         0.613658   
      4. B(C   4,C   3)                  1.3934         0.616971   
      5. B(C   5,C   0)                  1.4122         0.575774   
      6. B(C   5,C   4)                  1.4061         0.588917   
      7. B(O   7,C   5)                  2.3435         0.016853 C 
      8. B(O   7,N   6)                  1.2480         0.844503   
      9. B(O   8,N   6)                  1.3769         0.525866   
     10. B(F   9,C   0)                  1.3500         0.602260 C 
     11. B(F   9,N   6)                  2.8678         0.002044   
     12. B(F   9,O   7)                  2.5821         0.005837   
     13. B(H  11,H  10)                  2.4818         0.000415   
     14. B(H  12,O   8)                  2.5152         0.001717   
     15. B(H  12,H  11)                  2.4663         0.000439   
     16. B(H  12,N   6)                  2.7029         0.000861   
     17. B(C  13,O   7)                  7.6034         0.000000 C 
     18. B(H  14,C  13)                  1.0940         0.354885   
     19. B(H  15,C  13)                  1.0940         0.354905   
     20. B(H  16,C  13)                  1.0930         0.356106   
     21. B(S  17,C  13)                  1.8028         0.369754 C 
     22. A(N   1,C   0,C   5)          120.1571         0.425830   
     23. A(N   1,C   0,F   9)          118.6704         0.424592 C 
     24. A(C   5,C   0,F   9)          121.1725         0.421471 C 
     25. A(C   0,N   1,C   2)          121.9524         0.429796   
     26. A(N   1,C   2,C   3)          120.0262         0.431531   
     27. A(C   2,C   3,C   4)          119.3498         0.432882   
     28. A(C   3,C   4,C   5)          120.4718         0.429694   
     29. A(C   0,C   5,O   7)           94.5313         0.237820 C 
     30. A(C   0,C   5,C   4)          118.0425         0.424407   
     31. A(C   4,C   5,O   7)          147.4261         0.238582 C 
     32. A(O   7,N   6,F   9)           64.2090         0.186619   
     33. A(O   8,N   6,H  12)           67.2752         0.152046   
     34. A(O   7,N   6,H  12)          174.2234         0.159181   
     35. A(F   9,N   6,H  12)          110.0144         0.106848   
     36. A(O   7,N   6,O   8)          118.5014         0.433822   
     37. A(N   6,O   7,F   9)           89.9947         0.212791   
     38. A(C   5,O   7,C  13)          127.7793         0.089837   
     39. A(C   5,O   7,N   6)           31.7456         0.248611 C 
     40. A(C   5,O   7,F   9)           58.2491         0.140475 C 
     41. A(N   6,O   7,C  13)          118.1596         0.091012 C 
     42. A(F   9,O   7,C  13)          113.7068         0.089649 C 
     43. A(N   6,O   8,H  12)           82.3972         0.162696   
     44. A(N   6,F   9,O   7)           25.7962         0.120482   
     45. A(C   0,F   9,O   7)           86.0471         0.203997 C 
     46. A(C   0,F   9,N   6)           60.2509         0.179684 C 
     47. A(H  10,H  11,H  12)          119.7063         0.095112   
     48. A(N   6,H  12,O   8)           30.3275         0.103999   
     49. A(N   6,H  12,H  11)          126.7169         0.097913   
     50. A(O   8,H  12,H  11)          157.0445         0.099419   
     51. A(H  14,C  13,H  16)          108.9243         0.289667   
     52. A(H  15,C  13,H  16)          109.0255         0.289669   
     53. A(O   7,C  13,S  17)           16.6524         0.090816   
     54. A(H  16,C  13,S  17)          109.9059         0.339620 C 
     55. A(O   7,C  13,H  15)           97.5723         0.090454 C 
     56. A(O   7,C  13,H  16)          105.2898         0.090455 C 
     57. A(H  14,C  13,S  17)          109.9914         0.339425 C 
     58. A(H  15,C  13,S  17)          109.9766         0.339429 C 
     59. A(O   7,C  13,H  14)          125.8551         0.090454 C 
     60. A(H  14,C  13,H  15)          108.9904         0.289513   
     61. D(C   2,N   1,C   0,C   5)     -0.1041         0.028432   
     62. D(C   2,N   1,C   0,F   9)    179.9112         0.028432 C 
     63. D(C   3,C   2,N   1,C   0)      0.1066         0.025783   
     64. D(C   4,C   3,C   2,N   1)     -0.0956         0.020965   
     65. D(C   5,C   4,C   3,C   2)      0.0854         0.021202   
     66. D(O   7,C   5,C   0,N   1)    179.9933         0.022761 C 
     67. D(O   7,C   5,C   4,C   3)   -179.9036         0.021656 C 
     68. D(O   7,C   5,C   0,F   9)     -0.0223         0.022761 C 
     69. D(C   4,C   5,C   0,N   1)      0.0896         0.022761   
     70. D(C   4,C   5,C   0,F   9)   -179.9260         0.022761 C 
     71. D(C   0,C   5,C   4,C   3)     -0.0818         0.021656   
     72. D(F   9,O   7,C   5,C   0)      0.0117         0.001519 C 
     73. D(F   9,O   7,C   5,C   4)    179.8539         0.001519 C 
     74. D(C  13,O   7,N   6,F   9)    117.1283         0.085936 C 
     75. D(C  13,O   7,C   5,C   0)     96.8203         0.001519   
     76. D(C  13,O   7,C   5,C   4)    -83.3375         0.001519   
     77. D(N   6,O   7,C   5,C   4)     -0.1099         0.001519 C 
     78. D(C  13,O   7,N   6,O   8)    -62.8785         0.085936 C 
     79. D(F   9,O   7,N   6,H  12)      0.1568         0.085936   
     80. D(C   5,O   7,N   6,O   8)   -179.9761         0.085936 C 
     81. D(C   5,O   7,N   6,H  12)      0.1876         0.085936 C 
     82. D(F   9,O   7,N   6,O   8)    179.9932         0.085936   
     83. D(C   5,O   7,N   6,F   9)      0.0308         0.085936 C 
     84. D(N   6,O   7,C   5,C   0)   -179.9521         0.001519 C 
     85. D(C  13,O   7,N   6,H  12)    117.2851         0.085936 C 
     86. D(H  12,O   8,N   6,O   7)   -179.9821         0.025649   
     87. D(O   7,F   9,N   6,H  12)   -179.9832         0.001500   
     88. D(N   6,F   9,C   0,C   5)      0.0236         0.032536 C 
     89. D(O   7,F   9,C   0,N   1)   -179.9952         0.032536 C 
     90. D(N   6,F   9,C   0,N   1)   -179.9918         0.032536 C 
     91. D(O   7,F   9,C   0,C   5)      0.0202         0.032536 C 
     92. D(C   0,F   9,N   6,O   7)   -179.9922         0.001500 C 
     93. D(O   7,F   9,O   8,H  12)   -179.9897         0.001500   
     94. D(N   6,F   9,O   7,C   5)     -0.0190         0.001503 C 
     95. D(N   6,F   9,O   7,C  13)   -121.0230         0.001503 C 
     96. D(C   0,F   9,O   7,N   6)      0.0068         0.001503 C 
     97. D(C   0,F   9,O   7,C   5)     -0.0123         0.001503 C 
     98. D(C   0,F   9,N   6,H  12)      0.0246         0.001500 C 
     99. D(C   0,F   9,O   7,C  13)   -121.0162         0.001503   
    100. D(C   0,F   9,O   8,H  12)      0.0232         0.001500 C 
    101. D(O   8,H  12,N   6,O   7)    179.8441         0.001501   
    102. D(N   6,H  12,H  11,H  10)      0.0466         0.001502   
    103. D(H  11,H  12,N   6,O   7)     -0.1748         0.001501   
    104. D(H  11,H  12,N   6,O   8)    179.9811         0.001501   
    105. D(H  11,H  12,N   6,F   9)     -0.0245         0.001501   
    106. D(O   8,H  12,N   6,F   9)    179.9943         0.001501   
    107. D(H  11,H  12,O   8,N   6)     -0.0388         0.001502   
    108. D(O   8,H  12,H  11,H  10)      0.0710         0.001502   
    109. D(H  14,C  13,O   7,N   6)   -132.0052         0.001500 C 
    110. D(S  17,C  13,O   7,F   9)     -9.1818         0.001500   
    111. D(H  14,C  13,O   7,C   5)    -95.6619         0.001500   
    112. D(H  15,C  13,O   7,N   6)    107.9221         0.001500 C 
    113. D(H  15,C  13,O   7,F   9)   -148.4900         0.001500 C 
    114. D(H  15,C  13,O   7,C   5)    144.2655         0.001500   
    115. D(H  16,C  13,O   7,N   6)     -4.2423         0.001500 C 
    116. D(H  16,C  13,O   7,F   9)     99.3456         0.001500 C 
    117. D(H  16,C  13,O   7,C   5)     32.1011         0.001500   
    118. D(H  14,C  13,O   7,F   9)    -28.4174         0.001500 C 
    119. D(S  17,C  13,O   7,N   6)   -112.7696         0.001500   
    120. D(S  17,C  13,O   7,C   5)    -76.4263         0.001500   
    -----------------------------------------------------------------

Number of atoms                         .... 18
Number of degrees of freedom            .... 120

         *************************************************************
         *                GEOMETRY OPTIMIZATION CYCLE   1            *
         *************************************************************
---------------------------------
CARTESIAN COORDINATES (ANGSTROEM)
---------------------------------
  C      0.000000    0.000000    1.820000
  N      1.178000   -0.196000    2.473000
  C      1.255000   -0.207000    3.829000
  C      0.105000   -0.016000    4.595000
  C     -1.116000    0.187000    3.955000
  C     -1.192000    0.198000    2.551000
  N     -2.456000    0.409000    1.893000
  O     -2.541000    0.423000    0.648000
  O     -3.602000    0.600000    2.632000
  F      0.000000    0.000000    0.470000
  H      2.209000   -0.366000    4.313000
  H      0.163000   -0.026000    5.676000
  H     -2.005000    0.335000    4.557000
  C     -6.773000   -4.921000   -2.720000
  H     -6.471000   -5.533000   -3.575000
  H     -7.606000   -4.278000   -3.019000
  H     -7.103000   -5.579000   -1.912000
  S     -5.386000   -3.913000   -2.163000

----------------------------
CARTESIAN COORDINATES (A.U.)
----------------------------
  NO LB      ZA    FRAG     MASS         X           Y           Z
   0 C     6.0000    1    12.011    0.000000    0.000000    3.439302
   1 N     7.0000    1    14.007    2.226097   -0.370386    4.673293
   2 C     6.0000    1    12.011    2.371606   -0.391173    7.235761
   3 C     6.0000    1    12.011    0.198421   -0.030236    8.683292
   4 C     6.0000    1    12.011   -2.108934    0.353379    7.473867
   5 C     6.0000    1    12.011   -2.252554    0.374166    4.820691
   6 N     7.0000    2    14.007   -4.641167    0.772898    3.577252
   7 O     8.0000    2    15.999   -4.801794    0.799354    1.224543
   8 O     8.0000    2    15.999   -6.806794    1.133836    4.973759
   9 F     9.0000    2    18.998    0.000000    0.000000    0.888171
  10 H     1.0000    2     1.008    4.174405   -0.691640    8.150389
  11 H     1.0000    2     1.008    0.308025   -0.049133   10.726086
  12 H     1.0000    2     1.008   -3.788901    0.633058    8.611482
  13 C     6.0000    3    12.011  -12.799115   -9.299342   -5.140055
  14 H     1.0000    3     1.008  -12.228418  -10.455855   -6.755771
  15 H     1.0000    3     1.008  -14.373257   -8.084248   -5.705083
  16 H     1.0000    3     1.008  -13.422725  -10.542782   -3.613156
  17 S    16.0000    4    32.060  -10.178065   -7.394498   -4.087478

----------------------------------------------
CARTESIAN COORDINATES OF FRAGMENTS (ANGSTROEM)
----------------------------------------------

 FRAGMENT 1 
  C     0.000000    0.000000    1.820000
  N     1.178000   -0.196000    2.473000
  C     1.255000   -0.207000    3.829000
  C     0.105000   -0.016000    4.595000
  C    -1.116000    0.187000    3.955000
  C    -1.192000    0.198000    2.551000

 FRAGMENT 2 
  N    -2.456000    0.409000    1.893000
  O    -2.541000    0.423000    0.648000
  O    -3.602000    0.600000    2.632000
  F     0.000000    0.000000    0.470000
  H     2.209000   -0.366000    4.313000
  H     0.163000   -0.026000    5.676000
  H    -2.005000    0.335000    4.557000

 FRAGMENT 3 
  C    -6.773000   -4.921000   -2.720000
  H    -6.471000   -5.533000   -3.575000
  H    -7.606000   -4.278000   -3.019000
  H    -7.103000   -5.579000   -1.912000

 FRAGMENT 4 
  S    -5.386000   -3.913000   -2.163000

--------------------------------
INTERNAL COORDINATES (ANGSTROEM)
--------------------------------
 C      0   0   0     0.000000000000     0.00000000     0.00000000
 N      1   0   0     1.361069065110     0.00000000     0.00000000
 C      2   1   0     1.358228993948   121.95243626     0.00000000
 C      3   2   1     1.394896770374   120.02620694     0.10655554
 C      4   3   2     1.393431017309   119.34983770   359.90435571
 C      5   4   3     1.406098502951   120.47178172     0.08537773
 N      6   5   4     1.440548853736   120.30882193   180.03842131
 O      7   6   5     1.247976762604   121.13704526   179.93147861
 O      7   6   5     1.376923382037   120.36156660   359.90709941
 F      1   2   3     1.350000000000   118.67037638   179.91115691
 H      3   2   1     1.081504969938   119.86701156   179.98746005
 H      4   3   2     1.082601034546   120.19197482   179.89186186
 H      5   4   3     1.083803026384   118.91636700   180.02085854
 C      8   7   6     7.603392926845   118.15956375   117.09754315
 H     14   8   7     1.093971206202   125.85512671   227.99475205
 H     14   8   7     1.093955666378    97.57232235   107.92214892
 H     14   8   7     1.093036138469   105.28982423   355.75769563
 S     14   8   7     1.802798380297    16.65235684   247.23037376

---------------------------
INTERNAL COORDINATES (A.U.)
---------------------------
 C      0   0   0     0.000000000000     0.00000000     0.00000000
 N      1   0   0     2.572047782411     0.00000000     0.00000000
 C      2   1   0     2.566680825712   121.95243626     0.00000000
 C      3   2   1     2.635972881098   120.02620694     0.10655554
 C      4   3   2     2.633203009226   119.34983770   359.90435571
 C      5   4   3     2.657141087893   120.47178172     0.08537773
 N      6   5   4     2.722242816095   120.30882193   180.03842131
 O      7   6   5     2.358334302820   121.13704526   179.93147861
 O      7   6   5     2.602008099442   120.36156660   359.90709941
 F      1   2   3     2.551130280794   118.67037638   179.91115691
 H      3   2   1     2.043748205657   119.86701156   179.98746005
 H      4   3   2     2.045819467592   120.19197482   179.89186186
 H      5   4   3     2.048090902982   118.91636700   180.02085854
 C      8   7   6    14.368330320331   118.15956375   117.09754315
 H     14   8   7     2.067305978118   125.85512671   227.99475205
 H     14   8   7     2.067276612105    97.57232235   107.92214892
 H     14   8   7     2.065538956186   105.28982423   355.75769563
 S     14   8   7     3.406795213437    16.65235684   247.23037376

---------------------
BASIS SET INFORMATION
---------------------
There are 6 groups of distinct atoms

 Group   1 Type C   : 12s6p1d contracted to 5s4p1d pattern {63111/3111/1}
 Group   2 Type N   : 12s6p1d contracted to 5s4p1d pattern {63111/3111/1}
 Group   3 Type O   : 12s6p1d contracted to 5s4p1d pattern {63111/3111/1}
 Group   4 Type F   : 12s6p1d contracted to 5s4p1d pattern {63111/3111/1}
 Group   5 Type H   : 6s1p contracted to 4s1p pattern {3111/1}
 Group   6 Type S   : 14s10p1d contracted to 7s6p1d pattern {6311111/421111/1}

Atom   0C    basis set group =>   1
Atom   1N    basis set group =>   2
Atom   2C    basis set group =>   1
Atom   3C    basis set group =>   1
Atom   4C    basis set group =>   1
Atom   5C    basis set group =>   1
Atom   6N    basis set group =>   2
Atom   7O    basis set group =>   3
Atom   8O    basis set group =>   3
Atom   9F    basis set group =>   4
Atom  10H    basis set group =>   5
Atom  11H    basis set group =>   5
Atom  12H    basis set group =>   5
Atom  13C    basis set group =>   1
Atom  14H    basis set group =>   5
Atom  15H    basis set group =>   5
Atom  16H    basis set group =>   5
Atom  17S    basis set group =>   6
---------------------------------
AUXILIARY/J BASIS SET INFORMATION
---------------------------------
There are 6 groups of distinct atoms

 Group   1 Type C   : 12s5p4d2f1g contracted to 6s4p3d1f1g pattern {711111/2111/211/2/1}
 Group   2 Type N   : 12s5p4d2f1g contracted to 6s4p3d1f1g pattern {711111/2111/211/2/1}
 Group   3 Type O   : 12s5p4d2f1g contracted to 6s4p3d1f1g pattern {711111/2111/211/2/1}
 Group   4 Type F   : 12s5p4d2f1g contracted to 6s4p3d1f1g pattern {711111/2111/211/2/1}
 Group   5 Type H   : 5s2p1d contracted to 3s1p1d pattern {311/2/1}
 Group   6 Type S   : 14s5p5d2f1g contracted to 8s4p3d1f1g pattern {71111111/2111/311/2/1}

Atom   0C    basis set group =>   1
Atom   1N    basis set group =>   2
Atom   2C    basis set group =>   1
Atom   3C    basis set group =>   1
Atom   4C    basis set group =>   1
Atom   5C    basis set group =>   1
Atom   6N    basis set group =>   2
Atom   7O    basis set group =>   3
Atom   8O    basis set group =>   3
Atom   9F    basis set group =>   4
Atom  10H    basis set group =>   5
Atom  11H    basis set group =>   5
Atom  12H    basis set group =>   5
Atom  13C    basis set group =>   1
Atom  14H    basis set group =>   5
Atom  15H    basis set group =>   5
Atom  16H    basis set group =>   5
Atom  17S    basis set group =>   6


           ************************************************************
           *        Program running with 24 parallel MPI-processes    *
           *              working on a common directory               *
           ************************************************************
------------------------------------------------------------------------------
                           ORCA GTO INTEGRAL CALCULATION
                           -- RI-GTO INTEGRALS CHOSEN --
------------------------------------------------------------------------------
------------------------------------------------------------------------------
                   ___                                                        
                  /   \      - P O W E R E D   B Y -                         
                 /     \                                                     
                 |  |  |   _    _      __       _____    __    __             
                 |  |  |  | |  | |    /  \     |  _  \  |  |  /  |          
                  \  \/   | |  | |   /    \    | | | |  |  | /  /          
                 / \  \   | |__| |  /  /\  \   | |_| |  |  |/  /          
                |  |  |   |  __  | /  /__\  \  |    /   |      \           
                |  |  |   | |  | | |   __   |  |    \   |  |\   \          
                \     /   | |  | | |  |  |  |  | |\  \  |  | \   \       
                 \___/    |_|  |_| |__|  |__|  |_| \__\ |__|  \__/        
                                                                              
                      - O R C A' S   B I G   F R I E N D -                    
                                      &                                       
                       - I N T E G R A L  F E E D E R -                       
                                                                              
 v1 FN, 2020, v2 2021                                                         
------------------------------------------------------------------------------


Reading SHARK input file structure_opt.SHARKINP.tmp ... ok
----------------------
SHARK INTEGRAL PACKAGE
----------------------

Number of atoms                             ...     18
Number of basis functions                   ...    314
Number of shells                            ...    154
Maximum angular momentum                    ...      2
Integral batch strategy                     ... SHARK/LIBINT Hybrid
RI-J (if used) integral strategy            ... SPLIT-RIJ (Revised 2003 algorithm where possible)
Printlevel                                  ...      1
Contraction scheme used                     ... SEGMENTED contraction
Coulomb Range Separation                    ... NOT USED
Exchange Range Separation                   ... Long Range
   Mu parameter                             ...  0.300000
   Scaling (regular/separated)              ...  0.157706  0.842294
Finite Nucleus Model                        ... NOT USED
Auxiliary Coulomb fitting basis             ... AVAILABLE
   # of basis functions in Aux-J            ...    656
   # of shells in Aux-J                     ...    212
   Maximum angular momentum in Aux-J        ...      4
Auxiliary J/K fitting basis                 ... NOT available
Auxiliary Correlation fitting basis         ... NOT available
Auxiliary 'external' fitting basis          ... NOT available
Integral threshold                          ...     2.500000e-11
Primitive cut-off                           ...     2.500000e-12
Primitive pair pre-selection threshold      ...     2.500000e-12

Calculating pre-screening integrals         ... done (  0.0 sec) Dimension = 154
Organizing shell pair data                  ... done (  0.1 sec)
Shell pair information
Total number of shell pairs                 ...     11935
Shell pairs after pre-screening             ...      8651
Total number of primitive shell pairs       ...     38500
Primitive shell pairs kept                  ...     19950
          la=0 lb=0:   2639 shell pairs
          la=1 lb=0:   3561 shell pairs
          la=1 lb=1:   1230 shell pairs
          la=2 lb=0:    691 shell pairs
          la=2 lb=1:    478 shell pairs
          la=2 lb=2:     52 shell pairs

Calculating one electron integrals          ... done (  0.0 sec)
Calculating RI/J V-Matrix + Cholesky decomp.... done (  0.2 sec)
Calculating Nuclear repulsion               ... done (  0.0 sec) ENN=    666.993458160187 Eh

SHARK setup successfully completed in   0.8 seconds

Maximum memory used throughout the entire GTOINT-calculation: 17.4 MB


           ************************************************************
           *        Program running with 24 parallel MPI-processes    *
           *              working on a common directory               *
           ************************************************************
-------------------------------------------------------------------------------
                                 ORCA SCF
-------------------------------------------------------------------------------

------------
SCF SETTINGS
------------
Hamiltonian:
 Density Functional     Method          .... DFT(GTOs)
 Exchange Functional    Exchange        .... WB97X
 Correlation Functional Correlation     .... WB97X
 Gradients option       PostSCFGGA      .... off
 Hybrid DFT is turned on
   Fraction HF Exchange ScalHFX         ....  0.157706
   Scaling of DF-GGA-X  ScalDFX         ....  0.000000
   Scaling of DF-GGA-C  ScalDFC         ....  1.000000
   Scaling of DF-LDA-C  ScalLDAC        ....  1.000000
   Perturbative correction              ....  0.000000
   Density functional embedding theory  .... OFF
 Long-range corrected/Screened/Range-Separated Hybrid DFT is turned on
   Amount of maximum screened exact exchange              ....  0.842294
   Range separation parameter mu (erf(mu*r12)/r12)        ....  0.300000
 RI-approximation to the Coulomb term is turned on
   Number of AuxJ basis functions       .... 656
   RIJ-COSX (HFX calculated with COS-X)).... on


General Settings:
 Integral files         IntName         .... structure_opt
 Hartree-Fock type      HFTyp           .... RHF
 Total Charge           Charge          ....   -1
 Multiplicity           Mult            ....    1
 Number of Electrons    NEL             ....   98
 Basis Dimension        Dim             ....  314
 Nuclear Repulsion      ENuc            ....    666.9934581602 Eh

Convergence Acceleration:
 DIIS                   CNVDIIS         .... on
   Start iteration      DIISMaxIt       ....    12
   Startup error        DIISStart       ....  0.200000
   # of expansion vecs  DIISMaxEq       ....     5
   Bias factor          DIISBfac        ....   1.050
   Max. coefficient     DIISMaxC        ....  10.000
 Trust-Rad. Augm. Hess. CNVTRAH         .... auto
   Auto Start mean grad. ratio tolernc. ....  1.125000
   Auto Start start iteration           ....    20
   Auto Start num. interpolation iter.  ....    10
   Max. Number of Micro iterations      ....    16
   Max. Number of Macro iterations      .... Maxiter - #DIIS iter
   Number of Davidson start vectors     ....     2
   Converg. threshold I  (grad. norm)   ....   1.000e-05
   Converg. threshold II (energy diff.) ....   1.000e-08
   Grad. Scal. Fac. for Micro threshold ....   0.100
   Minimum threshold for Micro iter.    ....   0.010
   NR start threshold (gradient norm)   ....   0.001
   Initial trust radius                 ....   0.400
   Minimum AH scaling param. (alpha)    ....   1.000
   Maximum AH scaling param. (alpha)    .... 1000.000
   Orbital update algorithm             .... Taylor
   White noise on init. David. guess    .... on
   Maximum white noise                  ....   0.010
   Quad. conv. algorithm                .... NR
 SOSCF                  CNVSOSCF        .... on
   Start iteration      SOSCFMaxIt      ....   150
   Startup grad/error   SOSCFStart      ....  0.003300
 Level Shifting         CNVShift        .... on
   Level shift para.    LevelShift      ....    0.2500
   Turn off err/grad.   ShiftErr        ....    0.0010
 Zerner damping         CNVZerner       .... off
 Static damping         CNVDamp         .... on
   Fraction old density DampFac         ....    0.7000
   Max. Damping (<1)    DampMax         ....    0.9800
   Min. Damping (>=0)   DampMin         ....    0.0000
   Turn off err/grad.   DampErr         ....    0.1000
 Fernandez-Rico         CNVRico         .... off

SCF Procedure:
 Maximum # iterations   MaxIter         ....   125
 SCF integral mode      SCFMode         .... Direct
   Integral package                     .... SHARK and LIBINT hybrid scheme
 Reset frequency        DirectResetFreq ....    20
 Integral Threshold     Thresh          ....  2.500e-11 Eh
 Primitive CutOff       TCut            ....  2.500e-12 Eh

Convergence Tolerance:
 Convergence Check Mode ConvCheckMode   .... Total+1el-Energy
 Convergence forced     ConvForced      .... 0
 Energy Change          TolE            ....  1.000e-08 Eh
 1-El. energy change                    ....  1.000e-05 Eh
 Orbital Gradient       TolG            ....  1.000e-05
 Orbital Rotation angle TolX            ....  1.000e-05
 DIIS Error             TolErr          ....  5.000e-07


Diagonalization of the overlap matrix:
Smallest eigenvalue                        ... 4.173e-06
Time for diagonalization                   ...    0.015 sec
Threshold for overlap eigenvalues          ... 1.000e-08
Number of eigenvalues below threshold      ... 0
Time for construction of square roots      ...    0.130 sec
Total time needed                          ...    0.146 sec

Time for model grid setup =    0.274 sec

------------------------------
INITIAL GUESS: MODEL POTENTIAL
------------------------------
Loading Hartree-Fock densities                     ... done
Calculating cut-offs                               ... done
Initializing the effective Hamiltonian             ... done
Setting up the integral package (SHARK)            ... done
Starting the Coulomb interaction                   ... done (   0.1 sec)
Reading the grid                                   ... done
Mapping shells                                     ... done
Starting the XC term evaluation                    ... done (   0.0 sec)
  promolecular density results
     # of electrons  =     96.994995772
     EX              =    -96.552312488
     EC              =     -3.327200927
     EX+EC           =    -99.879513414
Transforming the Hamiltonian                       ... done (   0.0 sec)
Diagonalizing the Hamiltonian                      ... done (   0.0 sec)
Back transforming the eigenvectors                 ... done (   0.0 sec)
Now organizing SCF variables                       ... done
                      ------------------
                      INITIAL GUESS DONE (   0.5 sec)
                      ------------------
-------------------
DFT GRID GENERATION
-------------------

General Integration Accuracy     IntAcc      ... 4.388
Radial Grid Type                 RadialGrid  ... OptM3 with GC (2021)
Angular Grid (max. ang.)         AngularGrid ... 4 (Lebedev-302)
Angular grid pruning method      GridPruning ... 4 (adaptive)
Weight generation scheme         WeightScheme... Becke
Basis function cutoff            BFCut       ... 1.0000e-11
Integration weight cutoff        WCut        ... 1.0000e-14
Angular grids for H and He will be reduced by one unit
Partially contracted basis set               ... off
Rotationally invariant grid construction     ... off

Total number of grid points                  ...    98166
Total number of batches                      ...     1542
Average number of points per batch           ...       63
Average number of grid points per atom       ...     5454
Time for grid setup =    0.849 sec

--------------------
COSX GRID GENERATION
--------------------

GRIDX 1
-------
General Integration Accuracy     IntAcc      ... 3.816
Radial Grid Type                 RadialGrid  ... OptM3 with GC (2021)
Angular Grid (max. ang.)         AngularGrid ... 1 (Lebedev-50)
Angular grid pruning method      GridPruning ... 4 (adaptive)
Weight generation scheme         WeightScheme... Becke
Basis function cutoff            BFCut       ... 1.0000e-11
Integration weight cutoff        WCut        ... 1.0000e-14
Angular grids for H and He will be reduced by one unit
Partially contracted basis set               ... on
Rotationally invariant grid construction     ... off

Total number of grid points                  ...    12271
Total number of batches                      ...      203
Average number of points per batch           ...       60
Average number of grid points per atom       ...      682
UseSFitting                                  ... on

GRIDX 2
-------
General Integration Accuracy     IntAcc      ... 4.020
Radial Grid Type                 RadialGrid  ... OptM3 with GC (2021)
Angular Grid (max. ang.)         AngularGrid ... 2 (Lebedev-110)
Angular grid pruning method      GridPruning ... 4 (adaptive)
Weight generation scheme         WeightScheme... Becke
Basis function cutoff            BFCut       ... 1.0000e-11
Integration weight cutoff        WCut        ... 1.0000e-14
Angular grids for H and He will be reduced by one unit
Partially contracted basis set               ... on
Rotationally invariant grid construction     ... off

Total number of grid points                  ...    31200
Total number of batches                      ...      494
Average number of points per batch           ...       63
Average number of grid points per atom       ...     1733
UseSFitting                                  ... on

GRIDX 3
-------
General Integration Accuracy     IntAcc      ... 4.338
Radial Grid Type                 RadialGrid  ... OptM3 with GC (2021)
Angular Grid (max. ang.)         AngularGrid ... 3 (Lebedev-194)
Angular grid pruning method      GridPruning ... 4 (adaptive)
Weight generation scheme         WeightScheme... Becke
Basis function cutoff            BFCut       ... 1.0000e-11
Integration weight cutoff        WCut        ... 1.0000e-14
Angular grids for H and He will be reduced by one unit
Partially contracted basis set               ... on
Rotationally invariant grid construction     ... off

Total number of grid points                  ...    69363
Total number of batches                      ...     1091
Average number of points per batch           ...       63
Average number of grid points per atom       ...     3854
UseSFitting                                  ... on

Time for X-Grid setup             =    1.122 sec


--------------------
CPCM SOLVATION MODEL
--------------------
CPCM parameters:
  Epsilon                                         ...      78.3550
  Refrac                                          ...       1.3328
  Rsolv                                           ...       1.3000
  Surface type                                    ... GAUSSIAN VDW
  Epsilon function type                           ...         CPCM
Solvent:                                     ... WATER
SMD-CDS solvent descriptors:
  Soln                                       ...    1.3328
  Soln25                                     ...    1.3323
  Sola                                       ...    0.0000
  Solb                                       ...    0.0000
  Solg                                       ...    0.0000
  Solc                                       ...    0.0000
  Solh                                       ...    0.0000
Radii:
 Radius for C  used is    3.4960 Bohr (=   1.8500 Ang.)
 Radius for N  used is    3.5716 Bohr (=   1.8900 Ang.)
 Radius for O  used is    2.8724 Bohr (=   1.5200 Ang.)
 Radius for F  used is    3.2692 Bohr (=   1.7300 Ang.)
 Radius for H  used is    2.2677 Bohr (=   1.2000 Ang.)
 Radius for S  used is    4.7054 Bohr (=   2.4900 Ang.)
Calculating surface                               ...        done! (  0.0s)
GEPOL surface points                              ...         1160
GEPOL Volume                                      ...    1374.9205
GEPOL Surface-area                                ...     851.0754
Calculating surface distance matrix               ...        done! (  0.0s)
Performing Cholesky decomposition & store         ...        done! (  0.1s)
Overall time for CPCM initialization              ...                 0.1s
--------------
SCF ITERATIONS
--------------
ITER       Energy         Delta-E        Max-DP      RMS-DP      [F,P]     Damp
               ***  Starting incremental Fock matrix formation  ***
  0   -989.8658895164   0.000000000000 0.33720286  0.00323633  0.2373528 0.7000
  1   -990.0280807801  -0.162191263732 0.31466960  0.00262329  0.1150465 0.7000
                               ***Turning on DIIS***
  2   -990.1005059808  -0.072425200743 1.82705594  0.01005312  0.0595280 0.0000
  3   -990.2245249369  -0.124018956101 0.81266313  0.00422495  0.0550159 0.0000
  4   -990.2436658813  -0.019140944347 0.27007636  0.00141621  0.0124276 0.0000
  5   -990.2448409574  -0.001175076154 0.14555950  0.00077748  0.0061343 0.0000
                      *** Initiating the SOSCF procedure ***
                           *** Shutting down DIIS ***
                      *** Re-Reading the Fockian *** 
                      *** Removing any level shift *** 
ITER      Energy       Delta-E        Grad      Rot      Max-DP    RMS-DP
  6   -990.24507190  -0.0002309421  0.001493  0.001493  0.041124  0.000246
               *** Restarting incremental Fock matrix formation ***
  7   -990.24517336  -0.0001014602  0.000978  0.002401  0.012443  0.000186
  8   -990.24521328  -0.0000399228  0.000343  0.002513  0.011013  0.000174
  9   -990.24521920  -0.0000059184  0.000691  0.000725  0.009106  0.000091
 10   -990.24522623  -0.0000070340  0.000113  0.000191  0.001717  0.000022
 11   -990.24522631  -0.0000000725  0.000092  0.000126  0.004509  0.000023
 12   -990.24522667  -0.0000003609  0.000014  0.000040  0.003681  0.000019
 13   -990.24522668  -0.0000000073  0.000007  0.000032  0.009376  0.000057
 14   -990.24522668  -0.0000000048  0.000005  0.000013  0.003262  0.000022
                  ***Gradient check signals convergence***
              ***Rediagonalizing the Fockian in SOSCF/NRSCF***

               *****************************************************
               *                     SUCCESS                       *
               *           SCF CONVERGED AFTER  15 CYCLES          *
               *****************************************************

Old exchange energy                            =    -28.432720386 Eh
New exchange energy                            =    -28.432732382 Eh
Exchange energy change after final integration =     -0.000011997 Eh
Total energy after final integration           =   -990.245238684 Eh
Final COS-X integration done in                =     3.379 sec

SMD CDS free energy correction energy :                 5.87269     Kcal/mol
Total Energy after SMD CDS correction =              -990.235879956 Eh

----------------
TOTAL SCF ENERGY
----------------

Total Energy       :         -990.23587996 Eh          -26945.68819 eV

Components:
Nuclear Repulsion  :          666.99345816 Eh           18149.81472 eV
Electronic Energy  :        -1657.22933812 Eh          -45095.50290 eV
One Electron Energy:        -2693.12520383 Eh          -73283.66247 eV
Two Electron Energy:         1035.89586571 Eh           28188.15956 eV
Max COSX asymmetry :            0.00000256 Eh               0.00007 eV
CPCM Dielectric    :           -0.14062027 Eh              -3.82647 eV
SMD CDS (Gcds)     :            0.00935873 Eh               0.25466 eV

Virial components:
Potential Energy   :        -1977.46845421 Eh          -53809.65227 eV
Kinetic Energy     :          987.23257425 Eh           26863.96408 eV
Virial Ratio       :            2.00304215


DFT components:
N(Alpha)           :       48.999698611869 electrons
N(Beta)            :       48.999698611869 electrons
N(Total)           :       97.999397223738 electrons
E(XC)              :      -73.338182708652 Eh       
DFET-embed. en.    :        0.000000000000 Eh       
CPCM Solvation Model Properties:
Surface-charge          :            0.94538895
Charge-correction       :           -0.00546941 Eh              -0.14883 eV
Free-energy (cav+disp)  :            0.00935873 Eh               0.25466 eV

---------------
SCF CONVERGENCE
---------------

  Last Energy change         ...   -7.2713e-09  Tolerance :   1.0000e-08
  Last MAX-Density change    ...    3.5527e-15  Tolerance :   1.0000e-07
  Last RMS-Density change    ...    4.0011e-17  Tolerance :   5.0000e-09
  Last Orbital Gradient      ...    1.9358e-06  Tolerance :   1.0000e-05
  Last Orbital Rotation      ...    1.8275e-06  Tolerance :   1.0000e-05

             **** THE GBW FILE WAS UPDATED (structure_opt.gbw) ****
             **** DENSITY structure_opt.scfp WAS UPDATED ****
             **** ENERGY FILE WAS UPDATED (structure_opt.en.tmp) ****
             **** THE GBW FILE WAS UPDATED (structure_opt.gbw) ****
             **** DENSITY structure_opt.scfp WAS UPDATED ****
----------------
ORBITAL ENERGIES
----------------

  NO   OCC          E(Eh)            E(eV) 
   0   2.0000     -88.720003     -2414.1940 
   1   2.0000     -24.793408      -674.6629 
   2   2.0000     -19.275574      -524.5150 
   3   2.0000     -19.243869      -523.6523 
   4   2.0000     -14.669782      -399.1851 
   5   2.0000     -14.435708      -392.8156 
   6   2.0000     -10.437801      -284.0270 
   7   2.0000     -10.364256      -282.0257 
   8   2.0000     -10.338356      -281.3210 
   9   2.0000     -10.321307      -280.8570 
  10   2.0000     -10.290658      -280.0231 
  11   2.0000     -10.235863      -278.5320 
  12   2.0000      -7.915890      -215.4023 
  13   2.0000      -5.879048      -159.9770 
  14   2.0000      -5.871643      -159.7755 
  15   2.0000      -5.871629      -159.7751 
  16   2.0000      -1.396440       -37.9991 
  17   2.0000      -1.348176       -36.6857 
  18   2.0000      -1.151437       -31.3322 
  19   2.0000      -1.109414       -30.1887 
  20   2.0000      -1.008482       -27.4422 
  21   2.0000      -0.943544       -25.6751 
  22   2.0000      -0.874086       -23.7851 
  23   2.0000      -0.836115       -22.7518 
  24   2.0000      -0.796780       -21.6815 
  25   2.0000      -0.769277       -20.9331 
  26   2.0000      -0.706061       -19.2129 
  27   2.0000      -0.686593       -18.6832 
  28   2.0000      -0.669460       -18.2169 
  29   2.0000      -0.665036       -18.0966 
  30   2.0000      -0.661719       -18.0063 
  31   2.0000      -0.633282       -17.2325 
  32   2.0000      -0.620431       -16.8828 
  33   2.0000      -0.615382       -16.7454 
  34   2.0000      -0.563913       -15.3449 
  35   2.0000      -0.537247       -14.6192 
  36   2.0000      -0.528081       -14.3698 
  37   2.0000      -0.528061       -14.3693 
  38   2.0000      -0.494242       -13.4490 
  39   2.0000      -0.494092       -13.4449 
  40   2.0000      -0.456044       -12.4096 
  41   2.0000      -0.432436       -11.7672 
  42   2.0000      -0.421613       -11.4727 
  43   2.0000      -0.416552       -11.3350 
  44   2.0000      -0.408183       -11.1072 
  45   2.0000      -0.390702       -10.6315 
  46   2.0000      -0.385066       -10.4782 
  47   2.0000      -0.258832        -7.0432 
  48   2.0000      -0.258788        -7.0420 
  49   0.0000      -0.064795        -1.7632 
  50   0.0000       0.022542         0.6134 
  51   0.0000       0.054097         1.4721 
  52   0.0000       0.055499         1.5102 
  53   0.0000       0.057648         1.5687 
  54   0.0000       0.067861         1.8466 
  55   0.0000       0.074173         2.0184 
  56   0.0000       0.087634         2.3846 
  57   0.0000       0.090538         2.4637 
  58   0.0000       0.091078         2.4784 
  59   0.0000       0.099415         2.7052 
  60   0.0000       0.113489         3.0882 
  61   0.0000       0.114896         3.1265 
  62   0.0000       0.126293         3.4366 
  63   0.0000       0.128636         3.5004 
  64   0.0000       0.130710         3.5568 
  65   0.0000       0.140984         3.8364 
  66   0.0000       0.146972         3.9993 
  67   0.0000       0.152902         4.1607 
  68   0.0000       0.162002         4.4083 
  69   0.0000       0.164087         4.4650 
  70   0.0000       0.169618         4.6156 
  71   0.0000       0.172942         4.7060 
  72   0.0000       0.174549         4.7497 
  73   0.0000       0.178880         4.8676 
  74   0.0000       0.181630         4.9424 
  75   0.0000       0.182822         4.9749 
  76   0.0000       0.191332         5.2064 
  77   0.0000       0.192727         5.2444 
  78   0.0000       0.198385         5.3983 
  79   0.0000       0.202195         5.5020 
  80   0.0000       0.211328         5.7505 
  81   0.0000       0.212590         5.7849 
  82   0.0000       0.222394         6.0516 
  83   0.0000       0.223538         6.0828 
  84   0.0000       0.233769         6.3612 
  85   0.0000       0.235741         6.4148 
  86   0.0000       0.250139         6.8066 
  87   0.0000       0.253998         6.9116 
  88   0.0000       0.260429         7.0866 
  89   0.0000       0.269767         7.3407 
  90   0.0000       0.271495         7.3877 
  91   0.0000       0.277913         7.5624 
  92   0.0000       0.278298         7.5729 
  93   0.0000       0.282448         7.6858 
  94   0.0000       0.286417         7.7938 
  95   0.0000       0.296691         8.0734 
  96   0.0000       0.305276         8.3070 
  97   0.0000       0.309382         8.4187 
  98   0.0000       0.312708         8.5092 
  99   0.0000       0.326435         8.8828 
 100   0.0000       0.328139         8.9291 
 101   0.0000       0.339831         9.2473 
 102   0.0000       0.349131         9.5003 
 103   0.0000       0.349764         9.5176 
 104   0.0000       0.360862         9.8196 
 105   0.0000       0.368672        10.0321 
 106   0.0000       0.372588        10.1386 
 107   0.0000       0.377571        10.2742 
 108   0.0000       0.395971        10.7749 
 109   0.0000       0.404201        10.9989 
 110   0.0000       0.408556        11.1174 
 111   0.0000       0.413743        11.2585 
 112   0.0000       0.421549        11.4709 
 113   0.0000       0.431133        11.7317 
 114   0.0000       0.437255        11.8983 
 115   0.0000       0.453429        12.3384 
 116   0.0000       0.455198        12.3866 
 117   0.0000       0.459840        12.5129 
 118   0.0000       0.472439        12.8557 
 119   0.0000       0.474935        12.9236 
 120   0.0000       0.491727        13.3806 
 121   0.0000       0.506036        13.7699 
 122   0.0000       0.520195        14.1552 
 123   0.0000       0.527936        14.3659 
 124   0.0000       0.529743        14.4150 
 125   0.0000       0.552294        15.0287 
 126   0.0000       0.584372        15.9016 
 127   0.0000       0.611068        16.6280 
 128   0.0000       0.613300        16.6887 
 129   0.0000       0.618754        16.8372 
 130   0.0000       0.628247        17.0955 
 131   0.0000       0.638170        17.3655 
 132   0.0000       0.653693        17.7879 
 133   0.0000       0.658075        17.9071 
 134   0.0000       0.669289        18.2123 
 135   0.0000       0.700309        19.0564 
 136   0.0000       0.701466        19.0879 
 137   0.0000       0.726418        19.7668 
 138   0.0000       0.745508        20.2863 
 139   0.0000       0.770608        20.9693 
 140   0.0000       0.770903        20.9773 
 141   0.0000       0.781719        21.2717 
 142   0.0000       0.811771        22.0894 
 143   0.0000       0.826499        22.4902 
 144   0.0000       0.835844        22.7445 
 145   0.0000       0.849994        23.1295 
 146   0.0000       0.851354        23.1665 
 147   0.0000       0.870182        23.6788 
 148   0.0000       0.902543        24.5594 
 149   0.0000       0.909377        24.7454 
 150   0.0000       0.920129        25.0380 
 151   0.0000       0.933914        25.4131 
 152   0.0000       0.953727        25.9522 
 153   0.0000       0.954258        25.9667 
 154   0.0000       0.960765        26.1438 
 155   0.0000       0.972117        26.4527 
 156   0.0000       0.975941        26.5567 
 157   0.0000       0.984028        26.7768 
 158   0.0000       1.003854        27.3162 
 159   0.0000       1.004390        27.3308 
 160   0.0000       1.004596        27.3364 
 161   0.0000       1.035314        28.1723 
 162   0.0000       1.043851        28.4046 
 163   0.0000       1.061928        28.8965 
 164   0.0000       1.074016        29.2255 
 165   0.0000       1.080137        29.3920 
 166   0.0000       1.085312        29.5328 
 167   0.0000       1.142169        31.0800 
 168   0.0000       1.151687        31.3390 
 169   0.0000       1.159947        31.5638 
 170   0.0000       1.173185        31.9240 
 171   0.0000       1.187137        32.3036 
 172   0.0000       1.199608        32.6430 
 173   0.0000       1.211080        32.9552 
 174   0.0000       1.252497        34.0822 
 175   0.0000       1.264737        34.4152 
 176   0.0000       1.276878        34.7456 
 177   0.0000       1.279046        34.8046 
 178   0.0000       1.279635        34.8206 
 179   0.0000       1.293092        35.1868 
 180   0.0000       1.299605        35.3641 
 181   0.0000       1.357657        36.9437 
 182   0.0000       1.394580        37.9484 
 183   0.0000       1.405770        38.2529 
 184   0.0000       1.471415        40.0392 
 185   0.0000       1.506561        40.9956 
 186   0.0000       1.547072        42.0980 
 187   0.0000       1.586123        43.1606 
 188   0.0000       1.589674        43.2572 
 189   0.0000       1.589943        43.2645 
 190   0.0000       1.617475        44.0137 
 191   0.0000       1.631573        44.3973 
 192   0.0000       1.655154        45.0390 
 193   0.0000       1.657104        45.0921 
 194   0.0000       1.692611        46.0583 
 195   0.0000       1.693857        46.0922 
 196   0.0000       1.704788        46.3896 
 197   0.0000       1.715322        46.6763 
 198   0.0000       1.748938        47.5910 
 199   0.0000       1.764344        48.0103 
 200   0.0000       1.787643        48.6442 
 201   0.0000       1.809348        49.2349 
 202   0.0000       1.809963        49.2516 
 203   0.0000       1.813613        49.3509 
 204   0.0000       1.843161        50.1550 
 205   0.0000       1.845109        50.2080 
 206   0.0000       1.869081        50.8603 
 207   0.0000       1.910912        51.9986 
 208   0.0000       1.933850        52.6227 
 209   0.0000       1.947482        52.9937 
 210   0.0000       1.970359        53.6162 
 211   0.0000       1.971919        53.6587 
 212   0.0000       1.990680        54.1692 
 213   0.0000       2.011060        54.7237 
 214   0.0000       2.031850        55.2895 
 215   0.0000       2.045165        55.6518 
 216   0.0000       2.051512        55.8245 
 217   0.0000       2.110464        57.4286 
 218   0.0000       2.140604        58.2488 
 219   0.0000       2.147064        58.4246 
 220   0.0000       2.168434        59.0061 
 221   0.0000       2.172919        59.1281 
 222   0.0000       2.176246        59.2187 
 223   0.0000       2.205690        60.0199 
 224   0.0000       2.292730        62.3883 
 225   0.0000       2.323974        63.2385 
 226   0.0000       2.332003        63.4570 
 227   0.0000       2.332438        63.4689 
 228   0.0000       2.399069        65.2820 
 229   0.0000       2.429196        66.1018 
 230   0.0000       2.494261        67.8723 
 231   0.0000       2.563424        69.7543 
 232   0.0000       2.589093        70.4528 
 233   0.0000       2.596087        70.6431 
 234   0.0000       2.604313        70.8670 
 235   0.0000       2.627214        71.4901 
 236   0.0000       2.659170        72.3597 
 237   0.0000       2.660597        72.3985 
 238   0.0000       2.672948        72.7346 
 239   0.0000       2.674007        72.7634 
 240   0.0000       2.692121        73.2563 
 241   0.0000       2.767582        75.3097 
 242   0.0000       2.784895        75.7809 
 243   0.0000       2.828670        76.9720 
 244   0.0000       2.839850        77.2763 
 245   0.0000       2.858093        77.7727 
 246   0.0000       2.867605        78.0315 
 247   0.0000       2.883258        78.4574 
 248   0.0000       2.894429        78.7614 
 249   0.0000       2.902122        78.9708 
 250   0.0000       2.931358        79.7663 
 251   0.0000       2.937353        79.9294 
 252   0.0000       2.960287        80.5535 
 253   0.0000       2.976533        80.9956 
 254   0.0000       2.986555        81.2683 
 255   0.0000       3.001553        81.6764 
 256   0.0000       3.008384        81.8623 
 257   0.0000       3.097930        84.2990 
 258   0.0000       3.153001        85.7975 
 259   0.0000       3.188734        86.7699 
 260   0.0000       3.268471        88.9396 
 261   0.0000       3.307454        90.0004 
 262   0.0000       3.308060        90.0169 
 263   0.0000       3.339631        90.8760 
 264   0.0000       3.368166        91.6525 
 265   0.0000       3.454210        93.9938 
 266   0.0000       3.496827        95.1535 
 267   0.0000       3.558446        96.8302 
 268   0.0000       3.593207        97.7761 
 269   0.0000       3.681015       100.1655 
 270   0.0000       3.703979       100.7904 
 271   0.0000       3.753228       102.1305 
 272   0.0000       3.853341       104.8547 
 273   0.0000       3.887500       105.7843 
 274   0.0000       3.889176       105.8299 
 275   0.0000       3.890487       105.8655 
 276   0.0000       3.904002       106.2333 
 277   0.0000       3.924492       106.7909 
 278   0.0000       4.011551       109.1598 
 279   0.0000       4.059341       110.4603 
 280   0.0000       4.119914       112.1086 
 281   0.0000       4.143603       112.7532 
 282   0.0000       4.169040       113.4453 
 283   0.0000       4.405426       119.8777 
 284   0.0000       4.477629       121.8425 
 285   0.0000       4.504494       122.5735 
 286   0.0000       4.761657       129.5713 
 287   0.0000       4.942988       134.5055 
 288   0.0000       5.078152       138.1835 
 289   0.0000       5.110889       139.0744 
 290   0.0000       5.193416       141.3200 
 291   0.0000       5.220233       142.0498 
 292   0.0000       5.314515       144.6153 
 293   0.0000       5.699302       155.0859 
 294   0.0000       6.130776       166.8269 
 295   0.0000       6.407898       174.3678 
 296   0.0000       6.539273       177.9427 
 297   0.0000       6.842097       186.1829 
 298   0.0000       7.977684       217.0838 
 299   0.0000      17.545802       477.4456 
 300   0.0000      17.547482       477.4913 
 301   0.0000      17.634911       479.8703 
 302   0.0000      23.649165       643.5265 
 303   0.0000      23.890293       650.0879 
 304   0.0000      23.984355       652.6475 
 305   0.0000      24.029589       653.8784 
 306   0.0000      24.070970       655.0044 
 307   0.0000      24.181092       658.0010 
 308   0.0000      35.375358       962.6124 
 309   0.0000      35.656915       970.2740 
 310   0.0000      49.900524      1357.8623 
 311   0.0000      49.964272      1359.5970 
 312   0.0000      66.792388      1817.5133 
 313   0.0000     188.966645      5142.0438 

--------------------
FRAGMENT INFORMATION
--------------------
Fragment  1:    0   1   2   3   4   5 
Fragment  2:    6   7   8   9  10  11  12 
Fragment  3:   13  14  15  16 
Fragment  4:   17 


                    ********************************
                    * MULLIKEN POPULATION ANALYSIS *
                    ********************************

-------------------------
MULLIKEN FRAGMENT CHARGES
-------------------------
 Fragment   0 :  -0.452552
 Fragment   1 :   0.452858
 Fragment   2 :  -0.027270
 Fragment   3 :  -0.973036
Sum of fragment charges:   -1.0000000

---------------------------------
MULLIKEN FRAGMENT OVERLAP CHARGES
---------------------------------
                  0          1          2          3    
      0      19.956237   0.610012  -0.000134  -0.000582
      1       0.610012  34.958400   0.000240   0.001508
      2      -0.000134   0.000240  11.654438  -0.687867
      3      -0.000582   0.001508  -0.687867  17.316506

-----------------------
MULLIKEN ATOMIC CHARGES
-----------------------
   0 C :   -0.002380
   1 N :   -0.205875
   2 C :   -0.293465
   3 C :   -0.262205
   4 C :    0.422023
   5 C :   -0.110651
   6 N :   -0.063142
   7 O :   -0.047782
   8 O :   -0.235396
   9 F :   -0.103794
  10 H :    0.296142
  11 H :    0.281056
  12 H :    0.325774
  13 C :   -0.407157
  14 H :    0.125816
  15 H :    0.126413
  16 H :    0.127657
  17 S :   -0.973036
Sum of atomic charges:   -1.0000000

--------------------------------
MULLIKEN REDUCED ORBITAL CHARGES
--------------------------------
  0 C s       :     3.251867  s :     3.251867
      pz      :     0.677855  p :     2.590057
      px      :     0.971505
      py      :     0.940698
      dz2     :     0.052753  d :     0.160456
      dxz     :     0.048844
      dyz     :     0.028444
      dx2y2   :     0.013770
      dxy     :     0.016644
  1 N s       :     3.626295  s :     3.626295
      pz      :     1.142417  p :     3.549053
      px      :     1.241937
      py      :     1.164699
      dz2     :     0.008166  d :     0.030527
      dxz     :     0.007239
      dyz     :     0.004759
      dx2y2   :     0.005505
      dxy     :     0.004859
  2 C s       :     3.375987  s :     3.375987
      pz      :     0.811871  p :     2.833331
      px      :     1.167958
      py      :     0.853503
      dz2     :     0.023580  d :     0.084146
      dxz     :     0.032194
      dyz     :     0.014803
      dx2y2   :     0.007222
      dxy     :     0.006347
  3 C s       :     3.214320  s :     3.214320
      pz      :     1.157316  p :     2.994723
      px      :     0.870430
      py      :     0.966977
      dz2     :     0.015295  d :     0.053162
      dxz     :     0.017412
      dyz     :     0.005092
      dx2y2   :     0.008213
      dxy     :     0.007150
  4 C s       :     2.515357  s :     2.515357
      pz      :     0.913800  p :     3.005529
      px      :     1.245679
      py      :     0.846050
      dz2     :     0.016545  d :     0.057091
      dxz     :     0.015858
      dyz     :     0.010568
      dx2y2   :     0.007214
      dxy     :     0.006905
  5 C s       :     3.291328  s :     3.291328
      pz      :     1.136468  p :     2.746180
      px      :     0.487255
      py      :     1.122456
      dz2     :     0.013632  d :     0.073143
      dxz     :     0.029766
      dyz     :     0.010338
      dx2y2   :     0.011212
      dxy     :     0.008195
  6 N s       :     3.584203  s :     3.584203
      pz      :     1.055390  p :     3.369955
      px      :     1.209171
      py      :     1.105394
      dz2     :     0.027717  d :     0.108984
      dxz     :     0.039368
      dyz     :     0.023072
      dx2y2   :     0.008549
      dxy     :     0.010279
  7 O s       :     3.776241  s :     3.776241
      pz      :     1.026479  p :     4.252838
      px      :     1.827630
      py      :     1.398729
      dz2     :     0.009711  d :     0.018703
      dxz     :     0.003514
      dyz     :     0.005309
      dx2y2   :     0.000102
      dxy     :     0.000067
  8 O s       :     3.823363  s :     3.823363
      pz      :     1.623555  p :     4.399918
      px      :     1.218131
      py      :     1.558232
      dz2     :     0.001058  d :     0.012115
      dxz     :     0.004900
      dyz     :     0.000879
      dx2y2   :     0.003118
      dxy     :     0.002160
  9 F s       :     3.919320  s :     3.919320
      pz      :     1.389194  p :     5.179141
      px      :     1.915684
      py      :     1.874264
      dz2     :     0.003097  d :     0.005333
      dxz     :     0.000998
      dyz     :     0.001201
      dx2y2   :     0.000027
      dxy     :     0.000009
 10 H s       :     0.679958  s :     0.679958
      pz      :     0.005481  p :     0.023900
      px      :     0.014120
      py      :     0.004299
 11 H s       :     0.693982  s :     0.693982
      pz      :     0.016372  p :     0.024962
      px      :     0.003654
      py      :     0.004936
 12 H s       :     0.648705  s :     0.648705
      pz      :     0.007742  p :     0.025522
      px      :     0.013379
      py      :     0.004400
 13 C s       :     3.267018  s :     3.267018
      pz      :     1.051463  p :     3.087493
      px      :     1.004961
      py      :     1.031069
      dz2     :     0.006657  d :     0.052646
      dxz     :     0.008804
      dyz     :     0.015392
      dx2y2   :     0.007845
      dxy     :     0.013948
 14 H s       :     0.851475  s :     0.851475
      pz      :     0.009994  p :     0.022710
      px      :     0.005279
      py      :     0.007437
 15 H s       :     0.850870  s :     0.850870
      pz      :     0.005335  p :     0.022717
      px      :     0.009777
      py      :     0.007606
 16 H s       :     0.849611  s :     0.849611
      pz      :     0.009386  p :     0.022731
      px      :     0.005484
      py      :     0.007862
 17 S s       :     6.022559  s :     6.022559
      pz      :     3.893035  p :    10.919037
      px      :     3.364321
      py      :     3.661681
      dz2     :     0.003922  d :     0.031439
      dxz     :     0.005813
      dyz     :     0.003538
      dx2y2   :     0.004899
      dxy     :     0.013266


                     *******************************
                     * LOEWDIN POPULATION ANALYSIS *
                     *******************************

------------------------
LOEWDIN FRAGMENT CHARGES
------------------------
 Fragment   0 :   0.057247
 Fragment   1 :  -0.057254
 Fragment   2 :  -0.355614
 Fragment   3 :  -0.644379

----------------------------
LOEWDIN FRAGMENT BOND ORDERS
----------------------------
                  0          1          2          3    
      0      56.961942   6.778774   0.000020   0.000134
      1       6.778774  43.788041   0.000071   0.000361
      2       0.000020   0.000071  15.419555   1.743018
      3       0.000134   0.000361   1.743018  16.644379

----------------------
LOEWDIN ATOMIC CHARGES
----------------------
   0 C :    0.111469
   1 N :   -0.111920
   2 C :    0.077225
   3 C :   -0.033842
   4 C :    0.078044
   5 C :   -0.063729
   6 N :    0.241296
   7 O :   -0.153420
   8 O :   -0.338725
   9 F :   -0.078134
  10 H :    0.086996
  11 H :    0.084543
  12 H :    0.100189
  13 C :   -0.358906
  14 H :    0.001017
  15 H :    0.001145
  16 H :    0.001130
  17 S :   -0.644379

-------------------------------
LOEWDIN REDUCED ORBITAL CHARGES
-------------------------------
  0 C s       :     2.743691  s :     2.743691
      pz      :     0.849352  p :     2.815723
      px      :     1.080508
      py      :     0.885863
      dz2     :     0.112513  d :     0.329118
      dxz     :     0.100719
      dyz     :     0.050393
      dx2y2   :     0.033874
      dxy     :     0.031619
  1 N s       :     3.151613  s :     3.151613
      pz      :     1.301223  p :     3.903468
      px      :     1.416916
      py      :     1.185328
      dz2     :     0.017388  d :     0.056839
      dxz     :     0.015718
      dyz     :     0.007792
      dx2y2   :     0.009543
      dxy     :     0.006398
  2 C s       :     2.786877  s :     2.786877
      pz      :     1.032884  p :     2.954053
      px      :     1.096532
      py      :     0.824637
      dz2     :     0.060303  d :     0.181845
      dxz     :     0.069055
      dyz     :     0.027984
      dx2y2   :     0.014016
      dxy     :     0.010487
  3 C s       :     2.781237  s :     2.781237
      pz      :     1.081331  p :     3.128243
      px      :     1.092143
      py      :     0.954769
      dz2     :     0.034120  d :     0.124362
      dxz     :     0.045068
      dyz     :     0.008010
      dx2y2   :     0.022212
      dxy     :     0.014952
  4 C s       :     2.779274  s :     2.779274
      pz      :     1.065853  p :     3.014391
      px      :     1.108243
      py      :     0.840294
      dz2     :     0.040902  d :     0.128292
      dxz     :     0.039166
      dyz     :     0.021250
      dx2y2   :     0.015050
      dxy     :     0.011924
  5 C s       :     2.757972  s :     2.757972
      pz      :     1.088506  p :     3.125429
      px      :     0.957353
      py      :     1.079570
      dz2     :     0.039912  d :     0.180327
      dxz     :     0.071775
      dyz     :     0.019829
      dx2y2   :     0.031417
      dxy     :     0.017394
  6 N s       :     3.052036  s :     3.052036
      pz      :     1.206065  p :     3.500303
      px      :     1.215016
      py      :     1.079222
      dz2     :     0.060433  d :     0.206364
      dxz     :     0.076204
      dyz     :     0.035693
      dx2y2   :     0.017518
      dxy     :     0.016515
  7 O s       :     3.581036  s :     3.581036
      pz      :     1.283612  p :     4.540064
      px      :     1.838788
      py      :     1.417663
      dz2     :     0.020438  d :     0.032320
      dxz     :     0.005158
      dyz     :     0.006533
      dx2y2   :     0.000119
      dxy     :     0.000071
  8 O s       :     3.667346  s :     3.667346
      pz      :     1.709888  p :     4.650894
      px      :     1.369791
      py      :     1.571215
      dz2     :     0.001545  d :     0.020485
      dxz     :     0.009264
      dyz     :     0.001172
      dx2y2   :     0.005712
      dxy     :     0.002792
  9 F s       :     3.714991  s :     3.714991
      pz      :     1.535159  p :     5.355772
      px      :     1.934346
      py      :     1.886267
      dz2     :     0.004767  d :     0.007371
      dxz     :     0.001184
      dyz     :     0.001375
      dx2y2   :     0.000037
      dxy     :     0.000009
 10 H s       :     0.842605  s :     0.842605
      pz      :     0.016676  p :     0.070399
      px      :     0.042292
      py      :     0.011431
 11 H s       :     0.843007  s :     0.843007
      pz      :     0.047832  p :     0.072450
      px      :     0.011211
      py      :     0.013407
 12 H s       :     0.826582  s :     0.826582
      pz      :     0.023097  p :     0.073230
      px      :     0.038717
      py      :     0.011415
 13 C s       :     2.858367  s :     2.858367
      pz      :     1.121877  p :     3.393596
      px      :     1.141416
      py      :     1.130303
      dz2     :     0.013107  d :     0.106943
      dxz     :     0.017772
      dyz     :     0.030706
      dx2y2   :     0.015514
      dxy     :     0.029845
 14 H s       :     0.927287  s :     0.927287
      pz      :     0.031953  p :     0.071696
      px      :     0.016113
      py      :     0.023630
 15 H s       :     0.927158  s :     0.927158
      pz      :     0.015965  p :     0.071698
      px      :     0.032261
      py      :     0.023472
 16 H s       :     0.926992  s :     0.926992
      pz      :     0.029350  p :     0.071877
      px      :     0.017366
      py      :     0.025162
 17 S s       :     5.613586  s :     5.613586
      pz      :     3.858702  p :    10.993621
      px      :     3.453360
      py      :     3.681559
      dz2     :     0.004634  d :     0.037172
      dxz     :     0.006841
      dyz     :     0.004153
      dx2y2   :     0.005591
      dxy     :     0.015953


                      *****************************
                      * MAYER POPULATION ANALYSIS *
                      *****************************

  NA   - Mulliken gross atomic population
  ZA   - Total nuclear charge
  QA   - Mulliken gross atomic charge
  VA   - Mayer's total valence
  BVA  - Mayer's bonded valence
  FA   - Mayer's free valence

  ATOM       NA         ZA         QA         VA         BVA        FA
  0 C      6.0024     6.0000    -0.0024     4.3267     4.3267    -0.0000
  1 N      7.2059     7.0000    -0.2059     2.7042     2.7042    -0.0000
  2 C      6.2935     6.0000    -0.2935     3.9830     3.9830    -0.0000
  3 C      6.2622     6.0000    -0.2622     4.3406     4.3406    -0.0000
  4 C      5.5780     6.0000     0.4220     4.1847     4.1847    -0.0000
  5 C      6.1107     6.0000    -0.1107     3.4090     3.4090     0.0000
  6 N      7.0631     7.0000    -0.0631     3.9004     3.9004     0.0000
  7 O      8.0478     8.0000    -0.0478     2.1994     2.1994    -0.0000
  8 O      8.2354     8.0000    -0.2354     1.9957     1.9957    -0.0000
  9 F      9.1038     9.0000    -0.1038     0.9626     0.9626    -0.0000
 10 H      0.7039     1.0000     0.2961     0.8712     0.8712     0.0000
 11 H      0.7189     1.0000     0.2811     0.9036     0.9036     0.0000
 12 H      0.6742     1.0000     0.3258     0.8345     0.8345    -0.0000
 13 C      6.4072     6.0000    -0.4072     3.5674     3.5674     0.0000
 14 H      0.8742     1.0000     0.1258     0.9430     0.9430     0.0000
 15 H      0.8736     1.0000     0.1264     0.9426     0.9426     0.0000
 16 H      0.8723     1.0000     0.1277     0.9419     0.9419     0.0000
 17 S     16.9730    16.0000    -0.9730     0.5932     0.5932    -0.0000

  Mayer bond orders larger than 0.100000
B(  0-C ,  1-N ) :   1.2955 B(  0-C ,  2-C ) :   0.1935 B(  0-C ,  3-C ) :   0.1479 
B(  0-C ,  4-C ) :   0.3339 B(  0-C ,  5-C ) :   1.1810 B(  0-C ,  6-N ) :  -0.1946 
B(  0-C ,  9-F ) :   1.3927 B(  1-N ,  2-C ) :   1.1828 B(  1-N ,  5-C ) :   0.1825 
B(  2-C ,  3-C ) :   1.5914 B(  2-C , 10-H ) :   0.8827 B(  3-C ,  4-C ) :   1.4717 
B(  3-C ,  8-O ) :   0.1344 B(  3-C , 11-H ) :   0.8432 B(  4-C ,  5-C ) :   1.6163 
[...]
 289   0.0000       5.133577       139.6917 
 290   0.0000       5.209308       141.7525 
 291   0.0000       5.281816       143.7255 
 292   0.0000       5.370299       146.1333 
 293   0.0000       5.849925       159.1846 
 294   0.0000       6.340717       172.5397 
 295   0.0000       6.416511       174.6021 
 296   0.0000       6.550092       178.2371 
 297   0.0000       6.863200       186.7572 
 298   0.0000       7.977717       217.0847 
 299   0.0000      17.545811       477.4458 
 300   0.0000      17.547456       477.4906 
 301   0.0000      17.634898       479.8700 
 302   0.0000      23.700854       644.9330 
 303   0.0000      23.954234       651.8278 
 304   0.0000      24.020405       653.6284 
 305   0.0000      24.029966       653.8886 
 306   0.0000      24.134427       656.7312 
 307   0.0000      24.245446       659.7521 
 308   0.0000      35.451608       964.6873 
 309   0.0000      35.736677       972.4444 
 310   0.0000      49.924232      1358.5074 
 311   0.0000      50.031534      1361.4272 
 312   0.0000      66.806224      1817.8898 
 313   0.0000     188.966673      5142.0446 

--------------------
FRAGMENT INFORMATION
--------------------
Fragment  1:    0   1   2   3   4   5 
Fragment  2:    6   7   8   9  10  11  12 
Fragment  3:   13  14  15  16 
Fragment  4:   17 


                    ********************************
                    * MULLIKEN POPULATION ANALYSIS *
                    ********************************

-------------------------
MULLIKEN FRAGMENT CHARGES
-------------------------
 Fragment   0 :  -0.489037
 Fragment   1 :   0.489320
 Fragment   2 :  -0.027208
 Fragment   3 :  -0.973075
Sum of fragment charges:   -1.0000000

---------------------------------
MULLIKEN FRAGMENT OVERLAP CHARGES
---------------------------------
                  0          1          2          3    
      0      17.258926   0.505108  -0.000109  -0.000560
      1       0.505108  35.029862   0.000226   0.001434
      2      -0.000109   0.000226  11.654034  -0.687061
      3      -0.000560   0.001434  -0.687061  17.316169

-----------------------
MULLIKEN ATOMIC CHARGES
-----------------------
   0 C :    0.031321
   1 N :   -0.197845
   2 C :   -0.278017
   3 C :   -0.335466
   4 C :    0.504157
   5 C :   -0.213187
   6 N :   -0.000896
   7 O :   -0.158953
   8 O :   -0.114680
   9 F :   -0.121144
  10 H :    0.284047
  11 H :    0.278403
  12 H :    0.322544
  13 C :   -0.407063
  14 H :    0.125886
  15 H :    0.126488
  16 H :    0.127481
  17 S :   -0.973075
Sum of atomic charges:   -1.0000000

--------------------------------
MULLIKEN REDUCED ORBITAL CHARGES
--------------------------------
  0 C s       :     3.210586  s :     3.210586
      pz      :     0.671469  p :     2.588173
      px      :     0.971529
      py      :     0.945175
      dz2     :     0.057119  d :     0.169921
      dxz     :     0.050438
      dyz     :     0.029387
      dx2y2   :     0.014639
      dxy     :     0.018338
  1 N s       :     3.606317  s :     3.606317
      pz      :     1.151068  p :     3.557024
      px      :     1.251723
      py      :     1.154234
      dz2     :     0.008742  d :     0.034504
      dxz     :     0.008604
      dyz     :     0.005245
      dx2y2   :     0.006085
      dxy     :     0.005828
  2 C s       :     3.314515  s :     3.314515
      pz      :     0.825426  p :     2.874555
      px      :     1.176623
      py      :     0.872506
      dz2     :     0.025143  d :     0.088948
      dxz     :     0.033502
      dyz     :     0.015905
      dx2y2   :     0.007885
      dxy     :     0.006513
  3 C s       :     3.268488  s :     3.268488
      pz      :     1.157142  p :     3.011335
      px      :     0.884990
      py      :     0.969202
      dz2     :     0.015895  d :     0.055642
      dxz     :     0.018397
      dyz     :     0.005656
      dx2y2   :     0.008175
      dxy     :     0.007520
  4 C s       :     2.397345  s :     2.397345
      pz      :     0.943075  p :     3.038835
      px      :     1.246516
      py      :     0.849243
      dz2     :     0.017196  d :     0.059664
      dxz     :     0.016138
      dyz     :     0.011303
      dx2y2   :     0.007808
      dxy     :     0.007219
  5 C s       :     3.345691  s :     3.345691
      pz      :     1.159980  p :     2.793923
      px      :     0.507138
      py      :     1.126805
      dz2     :     0.013175  d :     0.073573
      dxz     :     0.030869
      dyz     :     0.010308
      dx2y2   :     0.011056
      dxy     :     0.008166
  6 N s       :     3.482862  s :     3.482862
      pz      :     1.037350  p :     3.379149
      px      :     1.229918
      py      :     1.111881
      dz2     :     0.038151  d :     0.138885
      dxz     :     0.045069
      dyz     :     0.029098
      dx2y2   :     0.011920
      dxy     :     0.014647
  7 O s       :     3.802127  s :     3.802127
      pz      :     1.023637  p :     4.338654
      px      :     1.839049
      py      :     1.475968
      dz2     :     0.009750  d :     0.018173
      dxz     :     0.003263
      dyz     :     0.005001
      dx2y2   :     0.000096
      dxy     :     0.000063
  8 O s       :     3.783244  s :     3.783244
      pz      :     1.547359  p :     4.311296
      px      :     1.331973
      py      :     1.431963
      dz2     :     0.002430  d :     0.020141
      dxz     :     0.007427
      dyz     :     0.002089
      dx2y2   :     0.004190
      dxy     :     0.004004
  9 F s       :     3.918554  s :     3.918554
      pz      :     1.399538  p :     5.197360
      px      :     1.918400
      py      :     1.879423
      dz2     :     0.003046  d :     0.005230
      dxz     :     0.000973
      dyz     :     0.001171
      dx2y2   :     0.000030
      dxy     :     0.000010
 10 H s       :     0.692661  s :     0.692661
      pz      :     0.004499  p :     0.023292
      px      :     0.014459
      py      :     0.004334
 11 H s       :     0.696410  s :     0.696410
      pz      :     0.016406  p :     0.025188
      px      :     0.003791
      py      :     0.004991
 12 H s       :     0.651611  s :     0.651611
      pz      :     0.007441  p :     0.025845
      px      :     0.013975
      py      :     0.004429
 13 C s       :     3.266907  s :     3.266907
      pz      :     1.051291  p :     3.087508
      px      :     1.005138
      py      :     1.031079
      dz2     :     0.006642  d :     0.052647
      dxz     :     0.008846
      dyz     :     0.015381
      dx2y2   :     0.007820
      dxy     :     0.013958
 14 H s       :     0.851389  s :     0.851389
      pz      :     0.009995  p :     0.022724
      px      :     0.005292
      py      :     0.007436
 15 H s       :     0.850778  s :     0.850778
      pz      :     0.005348  p :     0.022734
      px      :     0.009773
      py      :     0.007613
 16 H s       :     0.849805  s :     0.849805
      pz      :     0.009366  p :     0.022714
      px      :     0.005486
      py      :     0.007862
 17 S s       :     6.022642  s :     6.022642
      pz      :     3.891582  p :    10.918995
      px      :     3.365475
      py      :     3.661937
      dz2     :     0.003904  d :     0.031438
      dxz     :     0.005850
      dyz     :     0.003562
      dx2y2   :     0.004887
      dxy     :     0.013236


                     *******************************
                     * LOEWDIN POPULATION ANALYSIS *
                     *******************************

------------------------
LOEWDIN FRAGMENT CHARGES
------------------------
 Fragment   0 :   0.031188
 Fragment   1 :  -0.031172
 Fragment   2 :  -0.355627
 Fragment   3 :  -0.644389

----------------------------
LOEWDIN FRAGMENT BOND ORDERS
----------------------------
                  0          1          2          3    
      0      57.200555   6.725540   0.000020   0.000128
      1       6.725540  44.209263   0.000071   0.000407
      2       0.000020   0.000071  15.419704   1.742984
      3       0.000128   0.000407   1.742984  16.644389

----------------------
LOEWDIN ATOMIC CHARGES
----------------------
   0 C :    0.082238
   1 N :   -0.081990
   2 C :    0.056310
   3 C :   -0.034090
   4 C :    0.073170
   5 C :   -0.064451
   6 N :    0.202592
   7 O :   -0.219153
   8 O :   -0.194122
   9 F :   -0.088918
  10 H :    0.083318
  11 H :    0.085645
  12 H :    0.099468
  13 C :   -0.358843
  14 H :    0.000933
  15 H :    0.001040
  16 H :    0.001243
  17 S :   -0.644389

-------------------------------
LOEWDIN REDUCED ORBITAL CHARGES
-------------------------------
  0 C s       :     2.731110  s :     2.731110
      pz      :     0.851632  p :     2.836034
      px      :     1.095709
      py      :     0.888693
      dz2     :     0.121740  d :     0.350618
      dxz     :     0.104073
      dyz     :     0.052093
      dx2y2   :     0.037201
      dxy     :     0.035511
  1 N s       :     3.109069  s :     3.109069
      pz      :     1.300529  p :     3.907976
      px      :     1.433633
      py      :     1.173815
      dz2     :     0.018987  d :     0.064945
      dxz     :     0.018348
      dyz     :     0.009092
      dx2y2   :     0.010699
      dxy     :     0.007819
  2 C s       :     2.774332  s :     2.774332
      pz      :     1.042582  p :     2.975660
      px      :     1.092363
      py      :     0.840715
      dz2     :     0.064265  d :     0.193697
      dxz     :     0.072918
      dyz     :     0.030618
      dx2y2   :     0.015170
      dxy     :     0.010727
  3 C s       :     2.772476  s :     2.772476
      pz      :     1.079556  p :     3.132123
      px      :     1.096665
      py      :     0.955901
      dz2     :     0.035214  d :     0.129491
      dxz     :     0.047244
      dyz     :     0.008797
      dx2y2   :     0.022382
      dxy     :     0.015855
  4 C s       :     2.769246  s :     2.769246
      pz      :     1.074727  p :     3.022788
      px      :     1.105020
      py      :     0.843041
      dz2     :     0.042538  d :     0.134795
      dxz     :     0.040581
      dyz     :     0.022854
      dx2y2   :     0.016215
      dxy     :     0.012609
  5 C s       :     2.753235  s :     2.753235
      pz      :     1.090440  p :     3.129205
      px      :     0.958769
      py      :     1.079996
      dz2     :     0.039642  d :     0.182011
      dxz     :     0.074009
      dyz     :     0.020047
      dx2y2   :     0.030906
      dxy     :     0.017407
  6 N s       :     2.997864  s :     2.997864
      pz      :     1.219843  p :     3.530805
      px      :     1.230350
      py      :     1.080611
      dz2     :     0.080781  d :     0.268740
      dxz     :     0.092491
      dyz     :     0.045995
      dx2y2   :     0.025582
      dxy     :     0.023890
  7 O s       :     3.574283  s :     3.574283
      pz      :     1.275251  p :     4.613232
      px      :     1.847406
      py      :     1.490576
      dz2     :     0.020463  d :     0.031638
      dxz     :     0.004829
      dyz     :     0.006162
      dx2y2   :     0.000117
      dxy     :     0.000067
  8 O s       :     3.548685  s :     3.548685
      pz      :     1.672717  p :     4.610162
      px      :     1.487605
      py      :     1.449840
      dz2     :     0.003692  d :     0.035276
      dxz     :     0.015319
      dyz     :     0.002841
      dx2y2   :     0.008172
      dxy     :     0.005252
  9 F s       :     3.713828  s :     3.713828
      pz      :     1.539845  p :     5.367834
      px      :     1.937219
      py      :     1.890770
      dz2     :     0.004689  d :     0.007255
      dxz     :     0.001172
      dyz     :     0.001345
      dx2y2   :     0.000040
      dxy     :     0.000010
 10 H s       :     0.848068  s :     0.848068
      pz      :     0.014084  p :     0.068614
      px      :     0.042822
      py      :     0.011708
 11 H s       :     0.842184  s :     0.842184
      pz      :     0.047383  p :     0.072171
      px      :     0.011379
      py      :     0.013409
 12 H s       :     0.827089  s :     0.827089
      pz      :     0.021856  p :     0.073443
      px      :     0.040141
      py      :     0.011446
 13 C s       :     2.858252  s :     2.858252
      pz      :     1.121904  p :     3.393638
      px      :     1.141431
      py      :     1.130303
      dz2     :     0.013071  d :     0.106952
      dxz     :     0.017866
      dyz     :     0.030694
      dx2y2   :     0.015463
      dxy     :     0.029858
 14 H s       :     0.927304  s :     0.927304
      pz      :     0.031972  p :     0.071762
      px      :     0.016160
      py      :     0.023630
 15 H s       :     0.927183  s :     0.927183
      pz      :     0.016015  p :     0.071777
      px      :     0.032257
      py      :     0.023506
 16 H s       :     0.926967  s :     0.926967
      pz      :     0.029267  p :     0.071790
      px      :     0.017370
      py      :     0.025152
 17 S s       :     5.613583  s :     5.613583
      pz      :     3.857612  p :    10.993635
      px      :     3.454227
      py      :     3.681796
      dz2     :     0.004611  d :     0.037171
      dxz     :     0.006887
      dyz     :     0.004182
      dx2y2   :     0.005576
      dxy     :     0.015915


                      *****************************
                      * MAYER POPULATION ANALYSIS *
                      *****************************

  NA   - Mulliken gross atomic population
  ZA   - Total nuclear charge
  QA   - Mulliken gross atomic charge
  VA   - Mayer's total valence
  BVA  - Mayer's bonded valence
  FA   - Mayer's free valence

  ATOM       NA         ZA         QA         VA         BVA        FA
  0 C      5.9687     6.0000     0.0313     4.2441     4.2441     0.0000
  1 N      7.1978     7.0000    -0.1978     2.7303     2.7303    -0.0000
  2 C      6.2780     6.0000    -0.2780     4.0275     4.0275     0.0000
  3 C      6.3355     6.0000    -0.3355     4.4910     4.4910    -0.0000
  4 C      5.4958     6.0000     0.5042     4.0809     4.0809    -0.0000
  5 C      6.2132     6.0000    -0.2132     3.4389     3.4389     0.0000
  6 N      7.0009     7.0000    -0.0009     3.9969     3.9969    -0.0000
  7 O      8.1590     8.0000    -0.1590     2.1164     2.1164     0.0000
  8 O      8.1147     8.0000    -0.1147     2.1934     2.1934    -0.0000
  9 F      9.1211     9.0000    -0.1211     0.9245     0.9245    -0.0000
 10 H      0.7160     1.0000     0.2840     0.8740     0.8740    -0.0000
 11 H      0.7216     1.0000     0.2784     0.9084     0.9084    -0.0000
 12 H      0.6775     1.0000     0.3225     0.8359     0.8359     0.0000
 13 C      6.4071     6.0000    -0.4071     3.5673     3.5673    -0.0000
 14 H      0.8741     1.0000     0.1259     0.9429     0.9429     0.0000
 15 H      0.8735     1.0000     0.1265     0.9426     0.9426    -0.0000
 16 H      0.8725     1.0000     0.1275     0.9420     0.9420     0.0000
 17 S     16.9731    16.0000    -0.9731     0.5930     0.5930     0.0000

  Mayer bond orders larger than 0.100000
B(  0-C ,  1-N ) :   1.2990 B(  0-C ,  2-C ) :   0.1761 B(  0-C ,  3-C ) :   0.1757 
B(  0-C ,  4-C ) :   0.2882 B(  0-C ,  5-C ) :   1.2084 B(  0-C ,  6-N ) :  -0.1968 
B(  0-C ,  8-O ) :  -0.1104 B(  0-C ,  9-F ) :   1.3399 B(  1-N ,  2-C ) :   1.1706 
B(  1-N ,  5-C ) :   0.2033 B(  2-C ,  3-C ) :   1.6696 B(  2-C ,  5-C ) :   0.1092 
B(  2-C , 10-H ) :   0.8839 B(  3-C ,  4-C ) :   1.3965 B(  3-C ,  5-C ) :   0.1537 
B(  3-C ,  8-O ) :   0.1624 B(  3-C , 11-H ) :   0.8383 B(  4-C ,  5-C ) :   1.5769 
B(  4-C ,  8-O ) :   0.2376 B(  4-C ,  9-F ) :  -0.1254 B(  4-C , 12-H ) :   0.7230 
B(  5-C ,  6-N ) :   0.6568 B(  5-C ,  7-O ) :  -0.1055 B(  5-C ,  8-O ) :  -0.1987 
B(  5-C ,  9-F ) :  -0.3208 B(  5-C , 12-H ) :   0.1416 B(  6-N ,  7-O ) :   1.8219 
B(  6-N ,  8-O ) :   1.8404 B(  7-O ,  8-O ) :   0.2478 B( 13-C , 14-H ) :   0.9804 
B( 13-C , 15-H ) :   0.9823 B( 13-C , 16-H ) :   0.9825 B( 13-C , 17-S ) :   0.6220 


-------
TIMINGS
-------

Total SCF time: 0 days 0 hours 0 min 17 sec 

Total time                  ....      17.549 sec
Sum of individual times     ....      16.727 sec  ( 95.3%)

Fock matrix formation       ....      14.542 sec  ( 82.9%)
  Split-RI-J                ....       0.879 sec  (  6.0% of F)
  Chain of spheres X        ....      10.012 sec  ( 68.8% of F)
  XC integration            ....       2.316 sec  ( 15.9% of F)
    Basis function eval.    ....       0.155 sec  (  6.7% of XC)
    Density eval.           ....       0.160 sec  (  6.9% of XC)
    XC-Functional eval.     ....       0.062 sec  (  2.7% of XC)
    XC-Potential eval.      ....       0.132 sec  (  5.7% of XC)
Diagonalization             ....       0.026 sec  (  0.1%)
Density matrix formation    ....       0.014 sec  (  0.1%)
Population analysis         ....       0.324 sec  (  1.8%)
Initial guess               ....       0.041 sec  (  0.2%)
Orbital Transformation      ....       0.000 sec  (  0.0%)
Orbital Orthonormalization  ....       0.020 sec  (  0.1%)
DIIS solution               ....       0.011 sec  (  0.1%)
SOSCF solution              ....       0.118 sec  (  0.7%)
Grid generation             ....       1.650 sec  (  9.4%)

Maximum memory used throughout the entire SCF-calculation: 68.1 MB

-------------------------   --------------------
FINAL SINGLE POINT ENERGY      -990.265175061024
-------------------------   --------------------

                                *** OPTIMIZATION RUN DONE ***

                            ***************************************
                            *     ORCA property calculations      *
                            ***************************************

                                    ---------------------
                                    Active property flags
                                    ---------------------
   (+) Dipole Moment


------------------------------------------------------------------------------
                       ORCA ELECTRIC PROPERTIES CALCULATION
------------------------------------------------------------------------------

Dipole Moment Calculation                       ... on
Quadrupole Moment Calculation                   ... off
Polarizability Calculation                      ... off
GBWName                                         ... structure_opt.gbw
Electron density                                ... structure_opt.scfp
The origin for moment calculation is the CENTER OF MASS  = (-4.009209, -1.788102  2.290981)

-------------
DIPOLE MOMENT
-------------
                                X             Y             Z
Electronic contribution:     16.48066      14.96243       9.54697
Nuclear contribution   :     -9.50504      -9.89114      -0.46434
                        -----------------------------------------
Total Dipole Moment    :      6.97562       5.07128       9.08264
                        -----------------------------------------
Magnitude (a.u.)       :     12.52483
Magnitude (Debye)      :     31.83560



--------------------
Rotational spectrum 
--------------------
 
Rotational constants in cm-1:     0.045027     0.006158     0.005906 
Rotational constants in MHz :  1349.880720   184.625170   177.047553 

 Dipole components along the rotational axes: 
x,y,z [a.u.] :    12.345277     1.363217     1.614691 
x,y,z [Debye]:    31.379201     3.465023     4.104219 

 

Timings for individual modules:

Sum of individual times         ...     1210.185 sec (=  20.170 min)
GTO integral calculation        ...       67.077 sec (=   1.118 min)   5.5 %
SCF iterations                  ...      938.397 sec (=  15.640 min)  77.5 %
SCF Gradient evaluation         ...      203.294 sec (=   3.388 min)  16.8 %
Geometry relaxation             ...        1.418 sec (=   0.024 min)   0.1 %
                             ****ORCA TERMINATED NORMALLY****
TOTAL RUN TIME: 0 days 0 hours 21 minutes 24 seconds 672 msec
