
                                 *****************
                                 * O   R   C   A *
                                 *****************

                                            #,                                       
                                            ###                                      
                                            ####                                     
                                            #####                                    
                                            ######                                   
                                           ########,                                 
                                     ,,################,,,,,                         
                               ,,#################################,,                 
                          ,,##########################################,,             
                       ,#########################################, ''#####,          
                    ,#############################################,,   '####,        
                  ,##################################################,,,,####,       
                ,###########''''           ''''###############################       
              ,#####''   ,,,,##########,,,,          '''####'''          '####       
            ,##' ,,,,###########################,,,                        '##       
           ' ,,###''''                  '''############,,,                           
         ,,##''                                '''############,,,,        ,,,,,,###''
      ,#''                                            '''#######################'''  
     '                                                          ''''####''''         
             ,#######,   #######,   ,#######,      ##                                
            ,#'     '#,  ##    ##  ,#'     '#,    #''#        ######   ,####,        
            ##       ##  ##   ,#'  ##            #'  '#       #        #'  '#        
            ##       ##  #######   ##           ,######,      #####,   #    #        
            '#,     ,#'  ##    ##  '#,     ,#' ,#      #,         ##   #,  ,#        
             '#######'   ##     ##  '#######'  #'      '#     #####' # '####'        



                  #######################################################
                  #                        -***-                        #
                  #          Department of theory and spectroscopy      #
                  #    Directorship and core code : Frank Neese         #
                  #        Max Planck Institute fuer Kohlenforschung    #
                  #                Kaiser Wilhelm Platz 1               #
                  #                 D-45470 Muelheim/Ruhr               #
                  #                      Germany                        #
                  #                                                     #
                  #                  All rights reserved                #
                  #                        -***-                        #
                  #######################################################


                         Program Version 5.0.1 -  RELEASE  -


 With contributions from (in alphabetic order):
   Daniel Aravena         : Magnetic Suceptibility
   Michael Atanasov       : Ab Initio Ligand Field Theory (pilot matlab implementation)
   Alexander A. Auer      : GIAO ZORA, VPT2 properties, NMR spectrum
   Ute Becker             : Parallelization
   Giovanni Bistoni       : ED, misc. LED, open-shell LED, HFLD
   Martin Brehm           : Molecular dynamics
   Dmytro Bykov           : SCF Hessian
   Vijay G. Chilkuri      : MRCI spin determinant printing, contributions to CSF-ICE
   Dipayan Datta          : RHF DLPNO-CCSD density
   Achintya Kumar Dutta   : EOM-CC, STEOM-CC
   Dmitry Ganyushin       : Spin-Orbit,Spin-Spin,Magnetic field MRCI
   Miquel Garcia          : C-PCM and meta-GGA Hessian, CC/C-PCM, Gaussian charge scheme
   Yang Guo               : DLPNO-NEVPT2, F12-NEVPT2, CIM, IAO-localization
   Andreas Hansen         : Spin unrestricted coupled pair/coupled cluster methods
   Benjamin Helmich-Paris : MC-RPA, TRAH-SCF, COSX integrals
   Lee Huntington         : MR-EOM, pCC
   Robert Izsak           : Overlap fitted RIJCOSX, COSX-SCS-MP3, EOM
   Marcus Kettner         : VPT2
   Christian Kollmar      : KDIIS, OOCD, Brueckner-CCSD(T), CCSD density, CASPT2, CASPT2-K
   Simone Kossmann        : Meta GGA functionals, TD-DFT gradient, OOMP2, MP2 Hessian
   Martin Krupicka        : Initial AUTO-CI
   Lucas Lang             : DCDCAS
   Marvin Lechner         : AUTO-CI (C++ implementation), FIC-MRCC
   Dagmar Lenk            : GEPOL surface, SMD
   Dimitrios Liakos       : Extrapolation schemes; Compound Job, initial MDCI parallelization
   Dimitrios Manganas     : Further ROCIS development; embedding schemes
   Dimitrios Pantazis     : SARC Basis sets
   Anastasios Papadopoulos: AUTO-CI, single reference methods and gradients
   Taras Petrenko         : DFT Hessian,TD-DFT gradient, ASA, ECA, R-Raman, ABS, FL, XAS/XES, NRVS
   Peter Pinski           : DLPNO-MP2, DLPNO-MP2 Gradient
   Christoph Reimann      : Effective Core Potentials
   Marius Retegan         : Local ZFS, SOC
   Christoph Riplinger    : Optimizer, TS searches, QM/MM, DLPNO-CCSD(T), (RO)-DLPNO pert. Triples
   Tobias Risthaus        : Range-separated hybrids, TD-DFT gradient, RPA, STAB
   Michael Roemelt        : Original ROCIS implementation
   Masaaki Saitow         : Open-shell DLPNO-CCSD energy and density
   Barbara Sandhoefer     : DKH picture change effects
   Avijit Sen             : IP-ROCIS
   Kantharuban Sivalingam : CASSCF convergence, NEVPT2, FIC-MRCI
   Bernardo de Souza      : ESD, SOC TD-DFT
   Georgi Stoychev        : AutoAux, RI-MP2 NMR, DLPNO-MP2 response
   Willem Van den Heuvel  : Paramagnetic NMR
   Boris Wezisla          : Elementary symmetry handling
   Frank Wennmohs         : Technical directorship


 We gratefully acknowledge several colleagues who have allowed us to
 interface, adapt or use parts of their codes:
   Stefan Grimme, W. Hujo, H. Kruse, P. Pracht,  : VdW corrections, initial TS optimization,
                  C. Bannwarth, S. Ehlert          DFT functionals, gCP, sTDA/sTD-DF
   Ed Valeev, F. Pavosevic, A. Kumar             : LibInt (2-el integral package), F12 methods
   Garnet Chan, S. Sharma, J. Yang, R. Olivares  : DMRG
   Ulf Ekstrom                                   : XCFun DFT Library
   Mihaly Kallay                                 : mrcc  (arbitrary order and MRCC methods)
   Jiri Pittner, Ondrej Demel                    : Mk-CCSD
   Frank Weinhold                                : gennbo (NPA and NBO analysis)
   Christopher J. Cramer and Donald G. Truhlar   : smd solvation model
   Lars Goerigk                                  : TD-DFT with DH, B97 family of functionals
   V. Asgeirsson, H. Jonsson                     : NEB implementation
   FAccTs GmbH                                   : IRC, NEB, NEB-TS, DLPNO-Multilevel, CI-OPT
                                                   MM, QMMM, 2- and 3-layer-ONIOM, Crystal-QMMM,
                                                   LR-CPCM, SF, NACMEs, symmetry and pop. for TD-DFT,
                                                   nearIR, NL-DFT gradient (VV10), updates on ESD,
                                                   ML-optimized integration grids
   S Lehtola, MJT Oliveira, MAL Marques          : LibXC Library
   Liviu Ungur et al                             : ANISO software


 Your calculation uses the libint2 library for the computation of 2-el integrals
 For citations please refer to: http://libint.valeyev.net

 Your ORCA version has been built with support for libXC version: 5.1.0
 For citations please refer to: https://tddft.org/programs/libxc/

 This ORCA versions uses:
   CBLAS   interface :  Fast vector & matrix operations
   LAPACKE interface :  Fast linear algebra routines
   SCALAPACK package :  Parallel linear algebra routines
   Shared memory     :  Shared parallel matrices
   BLAS/LAPACK       :  OpenBLAS 0.3.15  USE64BITINT DYNAMIC_ARCH NO_AFFINITY SkylakeX SINGLE_THREADED
        Core in use  :  SkylakeX
   Copyright (c) 2011-2014, The OpenBLAS Project




***************************************
The coordinates will be read from file: structure_opt.xyz
***************************************


Your calculation utilizes the atom-pairwise dispersion correction
based on tight binding partial charges (D4)
Cite in your paper:
E.Caldeweyher, C.Bannwarth, S.Grimme, J.Chem.Phys., (2017), 147, 034112.
E.Caldeweyher, S.Ehlert, A.Hansen, H.Neugebauer, S.Grimme, J.Chem.Phys., (2018), in progress.
   

Your calculation utilizes the SMD solvation module
Please cite in your paper:
A.V. Marenich, C.J. Cramer, D.G. Truhlar J. Phys. Chem. B, 113, (2009), 6378 

XCFun DFT library Copyright 2009-2010 Ulf Ekstrom and contributors.
See http://admol.org/xcfun for more information.
This is free software; see the source code for copying conditions.
There is ABSOLUTELY NO WARRANTY; not even for MERCHANTABILITY or FITNESS FOR A PARTICULAR PURPOSE.
For details see the documentation.
Scientific users of this library should cite U. Ekstrom, L. Visscher, R. Bast, A. J. Thorvaldsen and K. Ruud;
J.Chem.Theor.Comp. 2010, DOI: 10.1021/ct100117s
XCFun Version 0.99 

Your calculation utilizes a Nudged-Elastic-Band implementation
 by V.Asgeirsson, C. Riplinger & H. Jonsson
Please cite in your paper:
 V. Asgeirsson et al., in prep. (2019)
   

================================================================================

----- Orbital basis set information -----
Your calculation utilizes the basis: 6-311++G**
   H, Li - Ne  : R. Krishnan, J. S. Binkley, R. Seeger and J. A. Pople, J. Chem. Phys. 72, 650 (1980).
   Na - Ar     : A. D. McLean and G. S. Chandler J. Chem. Phys. 72, 5639, (1980).
   K  - Ca     : J.-P. Blaudeau, M. P. McGrath, L. A. Curtiss and L. Radom, J. Chem. Phys. 107, 5016 (1997).
   Ga - Kr     : L. A. Curtiss, M. P. McGrath, J.-P. Blandeau, N. E. Davis, R. C. Binning and L. Radom, J. Chem. Phys. 103, 6104 (1995).
   Pol./Diff.
   H, Li - Cl  : T. Clark, J. Chandrasekhar and P. v. R. Schleyer, J. Comp. Chem. 4, 294 (1983).
   H - Ne      : M. J. Frisch, J. A. Pople and J. S. Binkley, J. Chem. Phys. 80, 3265 (1984).

----- AuxJ basis set information -----
Your calculation utilizes the auxiliary basis: def2/J
   F. Weigend, Phys. Chem. Chem. Phys. 8, 1057 (2006).

================================================================================
                                        WARNINGS
                       Please study these warnings very carefully!
================================================================================


WARNING: The environment variable RSH_COMMAND is not set!
  ===> : All Displacements for the Numerical Hessian calculation
         will be started on localhost

WARNING: Geometry Optimization
  ===> : Switching off AutoStart
         For restart on a previous wavefunction, please use MOREAD

INFO   : the flag for use of the SHARK integral package has been found!

================================================================================
                                       INPUT FILE
================================================================================
NAME = TS_search_opt_without_h.inp
|  1> !wb97x 6-311++G** D4 NEB-TS OPT NUMFREQ CPCM(WATER)
|  2> %maxcore  3500
|  3> %pal
|  4> nprocs 24
|  5> end
|  6> %cpcm
|  7> smd true
|  8> SMDsolvent "water"
|  9> end
| 10> %geom
| 11> MaxIter 1000   # allows for n optimization cycles
| 12> EnforceStrictConvergence False
| 13> end
| 14> %NEB NEB_END_XYZFILE "2f3_prod_opt.xyz" END
| 15> * XYZfile -1 1 structure_opt.xyz
| 16> 
| 17>                          ****END OF INPUT****
================================================================================


------------------------------------------------------------------------------- 
                         Nudged Elastic Band Calculation                       
------------------------------------------------------------------------------- 

Number of images (incl. end points)     ....  10
Number of intermediate images           ....  8
Number of optimized images              ....  8
Optimization of end points before NEB   ....  NO
Use existing gbw files for MO input     ....  NO
Number of atoms                         ....  18
Number of (active) degrees of freedom   ....  54
Constrained atoms                       ....  None

-----------------------------------------
  REACTANT (ANGSTROEM)
-----------------------------------------
C     -0.000801    -0.000584     1.845369 
N      1.121579    -0.188116     2.470708 
C      1.191400    -0.199535     3.801535 
C      0.083055    -0.016353     4.598294 
C     -1.122624     0.184899     3.958395 
C     -1.194436     0.196870     2.573834 
N     -2.456939     0.408453     1.913144 
O     -2.539126     0.423466     0.667975 
O     -3.429969     0.569823     2.623233 
F      0.002248     0.000510     0.495373 
H      2.176140    -0.361530     4.225895 
H      0.151985    -0.028579     5.677993 
H     -2.030642     0.335398     4.527528 
C     -6.763702    -4.917640    -2.713908 
H     -6.459901    -5.528743    -3.568418 
H     -7.595649    -4.274638    -3.014141 
H     -7.095689    -5.576557    -1.906852 
S     -5.377927    -3.910145    -2.152959 

-----------------------------------------
  PRODUCT (ANGSTROEM)
-----------------------------------------
C     -0.006655     0.014080     1.789576 
N      1.150760    -0.163122     2.425247 
C      1.177726    -0.139964     3.759145 
C      0.054738     0.057580     4.546999 
C     -1.158972     0.233636     3.911162 
C     -1.178720     0.217442     2.525234 
N     -2.493686     0.427964     1.904940 
O     -2.584738     1.164910     0.947848 
O     -3.439094    -0.145340     2.414303 
F      3.139899     2.499865     0.919104 
H      2.152169    -0.281946     4.215772 
H      0.130494     0.071637     5.627108 
H     -2.077395     0.389730     4.465403 
C      0.049505     1.625975    -0.482258 
H     -0.875798     2.113075    -0.187252 
H      0.131238     1.624494    -1.570971 
H      0.921382     2.132605    -0.060262 
S      0.064147    -0.119619     0.009902 



----------------------
NEB settings
----------------------
Method type                             ....  climbing image
Threshold for climbing image            ....  2.00e-02 Eh/Bohr 
Free endpoints                          ....  off 
Tangent type                            ....  improved 
Number of intermediate images           ....  8 
Number of images free to move           ....  8 
Spring type for image distribution      ....  distance between adjacent images 
Spring constant                         ....  energy weighted (0.0100 -to- 0.1000) Eh/Bohr^2 
Spring force perp. to the path          ....  none 
Generation of initial path              ....  image dependent pair potential 
Initial path via TS guess               ....  off 

Minimization of RMSD: Rotation          ....  always 
Minimization of RMSD: Translation type  ....  centroid 
Center fixed to origin                  ....  true 
Remove external force                   ....  true 

Reparametrization of the path           ....  off 
Convergence thresholds:
Convergence monitored for               ....  all images
Scaling factor                          ....  10.00

Convergence parameters for regular images:
               Max(|Fp|)                ....  2.00e-02 Eh/Bohr
               RMS(Fp)                  ....  1.00e-02 Eh/Bohr

Convergence parameters for climbing image:
               Max(|F|)                 ....  2.00e-03 Eh/Bohr
               RMS(F)                   ....  1.00e-03 Eh/Bohr
Optimization method:
Method                                  ....  L-BFGS
Max. iterations                         ....  500 
Step size                               ....  1.00 
Maximum allowed step size               ....  0.10 Bohr

LBFGS parameters: 
               Memory                   ....  20 
               Initial step size        ....  0.0010 
               Estimate curvature       ....  YES 
               Reset on maxmove         ....  YES 
               Reparam. on reset        ....  NO 
Generation of  the initial path:
Minimize RMSD between reactant and product configurations     .... done
       RMSD before minimization         ....  5.6640 Bohr
       RMSD after minimization          ....  3.4601 Bohr
Performing linear interpolation         ....  done
Interpolation using                     ....  IDPP (Image Dependent Pair Potential)
IDPP-Settings:
       Remove global transl. and rot.   ...   true
       Convergence tolerance            ....  0.0100 1/Ang.^3
       Max. numer of iterations         ....    7000
       Spring constant                  ....  1.0000 1/Ang.^4
       Time step                        ....  0.0100 fs
       Max. movement per iteration      ....  0.0500 Ang.
       Full print                       ....  false 
idpp initial path generation successfully converged in 291 iterations
Displacement along initial path:             26.9658 Bohr
Writing initial trajectory to file      ....  TS_search_opt_without_h_initial_path_trj.xyz



----------------------
NEB OPTIMIZATION      
----------------------

Following output files will be written:
Energy profile during opt. written to    ....  TS_search_opt_without_h.interp
Optimization log-file                    ....  TS_search_opt_without_h.NEB.log
Current trajectory will be written to    ....  TS_search_opt_without_h_MEP_trj.xyz
       and to allxyz file                ....  TS_search_opt_without_h_MEP.allxyz
       and individual images to xyz file ....  TS_search_opt_without_h_im{NIm}.xyz
Trajectory history will be written to    ....  TS_search_opt_without_h_MEP_ALL_trj.xyz
Converged CI will be written to          ....  TS_search_opt_without_h_NEB-CI_converged.xyz
Converged TS will be written to          ....  TS_search_opt_without_h_NEB-TS_converged.xyz

Single point energy and gradient calculation of reactant and
product configurations (have to be performed only once)
Properties of fixed NEB end points:
               Reactant:
                         E               ....   -990.267595 Eh
                         RMS(F)          ....      0.010141 Eh/Bohr
                         MAX(|F|)        ....      0.037092 Eh/Bohr
      Warning: Reactant seems to be less converged than convergence tolerances.
               You might want to use free end NEB or preopt_ends true.
               Product:
                         E               ....   -990.305496 Eh
                         RMS(F)          ....      0.001293 Eh/Bohr
                         MAX(|F|)        ....      0.004083 Eh/Bohr



Starting iterations:

Optim.  Iteration  HEI  E(HEI)-E(0)  max(|Fp|)   RMS(Fp)    dS
Switch-on CI threshold               0.020000 
   LBFGS     0      5    0.185260    0.123866   0.018781  26.9658       
   LBFGS     1      5    0.168030    0.080710   0.009302  26.9616       
   LBFGS     2      5    0.168118    0.114465   0.014493  26.9666       
   LBFGS     3      5    0.161612    0.064705   0.008287  26.9651       
   LBFGS     4      5    0.162470    0.068498   0.009819  26.9719       
   LBFGS     5      5    0.165100    0.095274   0.011894  26.9962       
   LBFGS     6      5    0.157869    0.070041   0.009079  27.0059       
   LBFGS     7      5    0.158484    0.082832   0.010172  27.0176       
   LBFGS     8      5    0.157299    0.079571   0.010530  27.0501       
   LBFGS     9      5    0.155332    0.054140   0.006905  27.0565       
   LBFGS    10      5    0.156164    0.062201   0.008310  27.0718       
   LBFGS    11      5    0.157815    0.076947   0.009912  27.1040       
   LBFGS    12      5    0.160096    0.124371   0.012990  27.1245       
   LBFGS    13      5    0.153541    0.040321   0.006765  27.1297       
   LBFGS    14      5    0.152889    0.037472   0.006155  27.1606       
   LBFGS    15      5    0.156736    0.094145   0.010789  27.1925       
   LBFGS    16      5    0.153756    0.066471   0.010061  27.2290       
   LBFGS    17      5    0.153516    0.063850   0.010175  27.2782       
   LBFGS    18      5    0.153264    0.049972   0.007757  27.2973       
   LBFGS    19      5    0.151652    0.034193   0.005438  27.3104       
   LBFGS    20      5    0.152461    0.044334   0.006516  27.3608       
   LBFGS    21      5    0.153762    0.060017   0.006439  27.3851       
   LBFGS    22      5    0.153145    0.050723   0.006838  27.4211       
   LBFGS    23      5    0.153290    0.053534   0.007472  27.4842       
   LBFGS    24      5    0.154888    0.087053   0.008154  27.5122       
   LBFGS    25      5    0.151352    0.029209   0.005076  27.5282       
   LBFGS    26      5    0.152188    0.055682   0.007057  27.5951       
   LBFGS    27      5    0.152399    0.054796   0.005564  27.6209       
   LBFGS    28      5    0.151011    0.032657   0.004599  27.6446       
   LBFGS    29      5    0.151333    0.041095   0.005927  27.7183       
   LBFGS    30      5    0.151939    0.048200   0.005474  27.7459       
   LBFGS    31      5    0.150866    0.039590   0.005226  27.7734       
   LBFGS    32      5    0.152394    0.052921   0.006629  27.8478       
   LBFGS    33      5    0.152279    0.058185   0.005023  27.8673       
   LBFGS    34      5    0.150688    0.023666   0.003570  27.8825       
   LBFGS    35      5    0.151240    0.033285   0.005475  27.9474       
   LBFGS    36      5    0.151901    0.053430   0.004822  27.9662       
   LBFGS    37      5    0.150410    0.024932   0.004069  27.9856       
   LBFGS    38      5    0.151623    0.053693   0.006493  28.0497       
   LBFGS    39      5    0.151282    0.045799   0.004085  28.0663       
   LBFGS    40      5    0.150140    0.020218   0.002931  28.0801       

Possible intermediate minimum found at image(s): 1 
  => have a look at the .interp file.
  => it is often a good idea to divide the path calculation into smaller fragments. 

   LBFGS    41      5    0.151328    0.039548   0.005626  28.1434       
   LBFGS    42      5    0.151772    0.058525   0.004773  28.1583       
   LBFGS    43      5    0.149969    0.017724   0.002988  28.1702       

Image  5 will be converted to a climbing image in the next iteration (max(|Fp|) < 0.0200) 

Optim.  Iteration  CI   E(CI)-E(0)   max(|Fp|)   RMS(Fp)    dS     max(|FCI|)   RMS(FCI)
Convergence thresholds               0.020000   0.010000            0.002000    0.001000 
   LBFGS    44      5    0.149893    0.017649   0.002692  28.1731    0.005748    0.001680       
   LBFGS    45      5    0.150656    0.042106   0.005472  28.2285    0.033907    0.007454       
   LBFGS    46      5    0.150034    0.031381   0.005055  28.2861    0.018269    0.004504       
   LBFGS    47      5    0.149821    0.024965   0.004857  28.3592    0.013572    0.003961       
   LBFGS    48      5    0.149547    0.016691   0.002562  28.3746    0.017325    0.003824       
   LBFGS    49      5    0.149419    0.016860   0.002638  28.3918    0.011275    0.002593       
   LBFGS    50      5    0.150132    0.045986   0.004542  28.4639    0.035882    0.007690       
   LBFGS    51      5    0.149462    0.016049   0.002225  28.4775    0.023828    0.005335       
   LBFGS    52      5    0.149103    0.015371   0.002023  28.4884    0.008532    0.002035       
   LBFGS    53      5    0.149326    0.023504   0.003766  28.5624    0.015367    0.004578       
   LBFGS    54      5    0.149338    0.015099   0.002101  28.5769    0.029768    0.006460       
   LBFGS    55      5    0.148844    0.015301   0.002248  28.5898    0.007937    0.002111       
   LBFGS    56      5    0.149352    0.019487   0.002923  28.6231    0.030702    0.006474       
   LBFGS    57      5    0.150682    0.031320   0.003822  28.7074    0.054492    0.011347       
   LBFGS    58      5    0.148727    0.013028   0.001849  28.7182    0.021581    0.005102       
   LBFGS    59      5    0.148392    0.012615   0.001518  28.7252    0.008605    0.002185       
   LBFGS    60      5    0.148507    0.017051   0.002540  28.7704    0.012711    0.004075       
   LBFGS    61      5    0.149283    0.025110   0.003477  28.8499    0.031923    0.008564       
   LBFGS    62      5    0.149559    0.030941   0.004093  28.9653    0.039213    0.010335       
   LBFGS    63      5    0.148196    0.015279   0.001914  28.9727    0.033312    0.007135       
   LBFGS    64      5    0.147507    0.009906   0.001297  28.9765    0.005690    0.001660       
   LBFGS    65      5    0.147471    0.009744   0.001486  28.9879    0.008447    0.002027       
   LBFGS    66      5    0.147775    0.014737   0.002174  29.0201    0.025862    0.005489       
   LBFGS    67      5    0.148790    0.024805   0.003665  29.1386    0.048215    0.010220       
   LBFGS    68      5    0.146998    0.008777   0.001580  29.1519    0.017153    0.004657       
   LBFGS    69      5    0.146631    0.007545   0.001105  29.1594    0.005141    0.001716       
   LBFGS    70      5    0.146532    0.007394   0.001299  29.1809    0.005226    0.001848       
   LBFGS    71      5    0.146664    0.011002   0.001714  29.2201    0.014619    0.004392       

Possible intermediate minimum found at image(s): 1 
  => have a look at the .interp file.
  => it is often a good idea to divide the path calculation into smaller fragments. 

   LBFGS    72      5    0.146715    0.019776   0.003016  29.3538    0.020263    0.006893       
   LBFGS    73      5    0.145790    0.015918   0.001676  29.3507    0.020271    0.004753       
   LBFGS    74      5    0.145377    0.006948   0.001079  29.3478    0.005857    0.001625       
   LBFGS    75      5    0.145275    0.004987   0.001070  29.3465    0.005990    0.001634       
   LBFGS    76      5    0.145291    0.006812   0.001224  29.3521    0.015792    0.003657       
   LBFGS    77      5    0.144775    0.022135   0.002477  29.3891    0.014299    0.004191       
   LBFGS    78      5    0.144107    0.014530   0.002495  29.4822    0.031067    0.007254       
   LBFGS    79      5    0.143728    0.018346   0.001977  29.5140    0.038341    0.008916       
   LBFGS    80      5    0.142614    0.008086   0.001168  29.5261    0.008845    0.002634       
   LBFGS    81      5    0.142440    0.003758   0.000874  29.5448    0.007310    0.001959       
   LBFGS    82      5    0.142242    0.003811   0.000837  29.5509    0.009507    0.002496       
   LBFGS    83      5    0.141120    0.017112   0.002097  29.5733    0.012148    0.002931       
   LBFGS    84      5    0.139927    0.018056   0.002428  29.6145    0.027790    0.006249       
   LBFGS    85      5    0.140363    0.011826   0.001840  29.6003    0.045680    0.010662       
   LBFGS    86      5    0.138785    0.006676   0.001311  29.5887    0.008489    0.002823       
   LBFGS    87      5    0.138583    0.005727   0.001139  29.5786    0.007367    0.002306       
   LBFGS    88      5    0.138337    0.006253   0.001132  29.5742    0.013984    0.003348       
   LBFGS    89      5    0.137424    0.017246   0.002469  29.5884    0.022934    0.005058       
   LBFGS    90      5    0.136421    0.026120   0.003203  29.6477    0.034211    0.007653       
   LBFGS    91      5    0.136500    0.013154   0.002129  29.6895    0.042597    0.010489       
   LBFGS    92      5    0.134838    0.008004   0.001533  29.7060    0.009867    0.003347       
   LBFGS    93      5    0.134486    0.005967   0.001319  29.7393    0.007829    0.002631       
   LBFGS    94      5    0.134146    0.006885   0.001362  29.7613    0.014493    0.003527       
   LBFGS    95      5    0.132817    0.017820   0.002867  29.8491    0.023457    0.005570       
   LBFGS    96      5    0.130647    0.023712   0.003673  30.0163    0.030777    0.007321       
   LBFGS    97      5    0.131323    0.016623   0.002953  29.9805    0.050086    0.012421       
   LBFGS    98      5    0.128855    0.011591   0.001875  29.9548    0.012608    0.004071       
   LBFGS    99      5    0.128164    0.006841   0.001509  29.9281    0.008464    0.002844       
   LBFGS   100      5    0.127568    0.008664   0.001541  29.9229    0.013566    0.003645       
   LBFGS   101      5    0.125382    0.020249   0.003144  29.9452    0.018454    0.005124       
   LBFGS   102      5    0.122926    0.019920   0.003802  30.0049    0.026602    0.007053       

Possible intermediate minimum found at image(s): 1 
  => have a look at the .interp file.
  => it is often a good idea to divide the path calculation into smaller fragments. 

   LBFGS   103      5    0.122150    0.014044   0.002702  30.0205    0.031957    0.008709       
   LBFGS   104      5    0.120395    0.010076   0.002093  30.0323    0.009968    0.003828       
   LBFGS   105      5    0.119273    0.007791   0.001883  30.0594    0.010055    0.003918       
   LBFGS   106      5    0.117067    0.018319   0.003179  30.1040    0.009170    0.003430       
   LBFGS   107      5    0.114114    0.019296   0.003458  30.1896    0.019020    0.005765       
   LBFGS   108      5    0.113906    0.024997   0.003389  30.1518    0.031417    0.009575       
   LBFGS   109      5    0.111866    0.011165   0.002124  30.1221    0.018064    0.005700       
   LBFGS   110      5    0.109787    0.011965   0.002356  30.1025    0.011117    0.004219       
   LBFGS   111      5    0.107302    0.026261   0.003790  30.1174    0.010826    0.003584       
   LBFGS   112      5    0.103017    0.034517   0.005110  30.1813    0.017696    0.005712       
   LBFGS   113      5    0.101614    0.037522   0.004327  30.1828    0.011600    0.004630       
   LBFGS   114      5    0.100644    0.029404   0.003282  30.1884    0.011522    0.004186       
   LBFGS   115      5    0.096626    0.017930   0.002810  30.2550    0.011268    0.003777       
   LBFGS   116      5    0.092819    0.032723   0.004649  30.3229    0.013021    0.004203       
   LBFGS   117      5    0.086970    0.045235   0.005938  30.4349    0.015724    0.005097       
   LBFGS   118      5    0.085536    0.030131   0.004330  30.4050    0.013233    0.004470       
   LBFGS   119      5    0.084267    0.024753   0.003634  30.3849    0.011985    0.004261       
   LBFGS   120      5    0.078612    0.020019   0.003245  30.3716    0.013176    0.004434       
   LBFGS   121      5    0.076542    0.038884   0.004947  30.3944    0.013394    0.004453       
   LBFGS   122      5    0.074846    0.030180   0.003941  30.4113    0.013404    0.004586       
   LBFGS   123      5    0.067390    0.015385   0.003154  30.5039    0.013083    0.004895       
   LBFGS   124      5    0.064188    0.035109   0.004685  30.4989    0.013251    0.005032       
   LBFGS   125      5    0.060704    0.033242   0.004147  30.5146    0.014346    0.005733       
   LBFGS   126      5    0.051426    0.030353   0.004181  30.6051    0.014781    0.006027       
   LBFGS   127      5    0.048177    0.035595   0.004901  30.6372    0.015237    0.005268       
   LBFGS   128      5    0.045782    0.029478   0.003627  30.6672    0.015355    0.005454       
   LBFGS   129      5    0.036115    0.016857   0.003051  30.8258    0.016632    0.006226       
   LBFGS   130      5    0.030841    0.035824   0.004921  30.8688    0.024362    0.008893       
   LBFGS   131      5    0.025198    0.024175   0.003724  30.9361    0.020639    0.007707       
   LBFGS   132      5    0.014777    0.034815   0.006115  31.1531    0.015765    0.006682       
   LBFGS   133      5    0.011246    0.067387   0.008580  31.2534    0.010157    0.005004       
   LBFGS   134      5    0.010164    0.015455   0.002694  31.2632    0.009421    0.003898       
   LBFGS   135      4    0.019998    0.009800   0.002206  31.2917    0.016569    0.004989       
   LBFGS   136      4    0.033351    0.031543   0.004648  31.4370    0.079634    0.026537       
   LBFGS   137      4    0.019468    0.014585   0.002651  31.3698    0.016501    0.006591       
   LBFGS   138      4    0.019399    0.011689   0.002264  31.3282    0.017827    0.006810       
   LBFGS   139      4    0.018685    0.012324   0.001960  31.2346    0.018836    0.006376       
   LBFGS   140      4    0.022096    0.033251   0.003277  31.2613    0.049074    0.015200       
   LBFGS   141      4    0.019139    0.012723   0.002328  31.2796    0.031900    0.009707       
   LBFGS   142      4    0.017397    0.017197   0.002687  31.3690    0.019541    0.006563       
   LBFGS   143      4    0.017853    0.032929   0.003234  31.4128    0.025285    0.008535       
   LBFGS   144      4    0.017065    0.016412   0.002405  31.4563    0.020478    0.006489       
   LBFGS   145      4    0.016850    0.020711   0.002947  31.6157    0.018772    0.006718       
   LBFGS   146      4    0.016039    0.035801   0.003033  31.6422    0.019350    0.005972       
   LBFGS   147      4    0.015759    0.010092   0.001926  31.6664    0.014911    0.004928       
   LBFGS   148      4    0.014875    0.017547   0.002249  31.7549    0.012101    0.003619       
   LBFGS   149      4    0.014265    0.030783   0.002602  31.8520    0.020538    0.003914       
   LBFGS   150      4    0.013697    0.032676   0.002674  31.9733    0.017842    0.003753       
   LBFGS   151      4    0.013949    0.062649   0.004276  31.9923    0.030403    0.006101       
   LBFGS   152      4    0.013264    0.009674   0.001375  31.9925    0.005611    0.002063       
   LBFGS   153      4    0.013122    0.013676   0.001344  32.0086    0.007779    0.001951       
   LBFGS   154      4    0.012939    0.025700   0.001877  32.0442    0.012956    0.002580       
   LBFGS   155      4    0.012450    0.036198   0.002869  32.1925    0.023556    0.004335       
   LBFGS   156      4    0.012104    0.014064   0.001621  32.2083    0.008378    0.002209       
   LBFGS   157      4    0.012031    0.013552   0.001412  32.2258    0.007586    0.002071       
   LBFGS   158      4    0.011192    0.027861   0.003015  32.5073    0.008347    0.001908       

Possible intermediate minimum found at image(s): 1 
  => have a look at the .interp file.
  => it is often a good idea to divide the path calculation into smaller fragments. 

   LBFGS   159      4    0.011136    0.041721   0.004044  32.5128    0.009995    0.002375       
   LBFGS   160      4    0.011012    0.010785   0.001454  32.5125    0.003287    0.001287       
   LBFGS   161      4    0.010963    0.012658   0.001392  32.5148    0.003668    0.001199       
   LBFGS   162      4    0.010887    0.015575   0.001556  32.5235    0.004886    0.001313       
   LBFGS   163      4    0.010292    0.023169   0.002440  32.6524    0.005976    0.001382       
   LBFGS   164      4    0.009822    0.017641   0.002059  32.7891    0.005405    0.001418       
   LBFGS   165      4    0.008984    0.022808   0.002899  33.0706    0.003576    0.001374       
   LBFGS   166      4    0.008926    0.034859   0.003075  33.1028    0.004255    0.001493       
   LBFGS   167      4    0.008851    0.022026   0.002106  33.1456    0.003702    0.001321       
   LBFGS   168      4    0.008732    0.012982   0.001260  33.2115    0.001961    0.000871       

                                .--------------------.
          ----------------------| CI-NEB convergence |-------------------------
          Item                value                   Tolerance       Converged
          ---------------------------------------------------------------------
          RMS(Fp)             0.0012596950            0.0100000000      YES
          MAX(|Fp|)           0.0129823347            0.0200000000      YES
          RMS(FCI)            0.0008714624            0.0010000000      YES
          MAX(|FCI|)          0.0019608679            0.0020000000      YES
          ---------------------------------------------------------------------

The elastic band and climbing image have converged successfully to a MEP in 168 iterations!


                    *********************H U R R A Y*********************
                    ***        THE NEB OPTIMIZATION HAS CONVERGED     ***
                    *****************************************************



---------------------------------------------------------------
                         PATH SUMMARY              
---------------------------------------------------------------
All forces in Eh/Bohr.

Image Dist.(Ang.)    E(Eh)   dE(kcal/mol)  max(|Fp|)  RMS(Fp)
  0     0.000    -990.26760      0.00       0.03711   0.01014
  1     4.387    -990.27404     -4.04       0.00031   0.00010
  2     8.880    -990.27365     -3.80       0.00139   0.00051
  3    10.999    -990.26756      0.02       0.01298   0.00278
  4    11.458    -990.25886      5.48       0.00194   0.00087 <= CI
  5    11.625    -990.26234      3.30       0.00639   0.00137
  6    11.866    -990.27279     -3.26       0.00440   0.00147
  7    12.841    -990.28322     -9.81       0.00403   0.00134
  8    15.013    -990.29928    -19.88       0.00163   0.00067
  9    17.575    -990.30550    -23.78       0.00409   0.00129

Straight line distance between images along the path:
        D( 0- 1) =   4.3869 Ang.
        D( 1- 2) =   4.4929 Ang.
        D( 2- 3) =   2.1189 Ang.
        D( 3- 4) =   0.4597 Ang.
        D( 4- 5) =   0.1669 Ang.
        D( 5- 6) =   0.2408 Ang.
        D( 6- 7) =   0.9753 Ang.
        D( 7- 8) =   2.1712 Ang.
        D( 8- 9) =   2.5622 Ang.

---------------------------------------------------------------
               INFORMATION ABOUT SADDLE POINT     
---------------------------------------------------------------

Climbing image                            ....  4 
Energy                                    ....  -990.25886359 Eh
Max. abs. force                           ....  1.9609e-03 Eh/Bohr

-----------------------------------------
  SADDLE POINT (ANGSTROEM)
-----------------------------------------
C      0.693796    -0.093845    -0.321934 
N      1.784286    -0.689250     0.171852 
C      2.284468    -0.280567     1.334390 
C      1.793902     0.795351     2.070203 
C      0.625099     1.378060     1.621359 
C      0.057481     0.935946     0.435523 
N     -1.214601     1.464131     0.052559 
O     -1.554651     1.404754    -1.118539 
O     -1.938626     1.932648     0.927037 
F      0.737791     0.026550    -1.683377 
H      3.160484    -0.817945     1.687731 
H      2.317195     1.162490     2.944788 
H      0.155318     2.195740     2.157388 
C     -1.824918    -1.883050    -2.175247 
H     -1.888545    -0.893829    -2.637920 
H     -2.845658    -2.272364    -2.098847 
H     -1.276872    -2.539920    -2.857440 
S     -1.065949    -1.824900    -0.509527 

-----------------------------------------
  FORCES (Eh/Bohr)
-----------------------------------------
C      0.000195     0.000295    -0.000560 
N      0.000686     0.000957    -0.000567 
C     -0.000712    -0.000280    -0.001592 
C     -0.000211    -0.000921     0.000365 
C     -0.001024    -0.000289    -0.000351 
C      0.000054     0.000480    -0.000565 
N      0.000507    -0.000065    -0.001835 
O     -0.000330    -0.000593    -0.000025 
O     -0.000026     0.001961    -0.000167 
F     -0.001255    -0.000353    -0.000749 
H      0.000316    -0.000063    -0.001012 
H     -0.001515    -0.001942     0.000607 
H     -0.000465    -0.000867     0.000112 
C      0.000799     0.000283     0.001346 
H      0.001187     0.000572     0.001895 
H      0.000806     0.000366     0.000464 
H      0.001150     0.000703     0.001217 
S     -0.000015    -0.000468     0.001330 

-----------------------------------------
  UNIT TANGENT
-----------------------------------------
C     -0.395777    -0.375094    -0.002606 
N     -0.195293    -0.232572     0.059070 
C     -0.096493    -0.066168    -0.070376 
C     -0.038295    -0.017852    -0.046098 
C     -0.024121    -0.019072    -0.039527 
C     -0.114598    -0.076359    -0.008808 
N     -0.027481    -0.018126     0.051164 
O     -0.091150    -0.070825     0.024956 
O     -0.017600     0.106107     0.012687 
F      0.119169     0.109701    -0.080081 
H     -0.041671    -0.007190    -0.079722 
H      0.008717    -0.003128    -0.074772 
H      0.021504     0.024770    -0.067874 
C      0.166293     0.108555     0.057677 
H      0.035083     0.054916    -0.015443 
H      0.179899     0.060157     0.242849 
H      0.082279     0.044863     0.055678 
S      0.429533     0.377317    -0.018775 
 => Unit tangent is an approximation to the TS mode at the saddle point

Next a TS optimization is performed on the CI from the NEB run.

         *************************************************************
         *                       TS OPTIMIZATION                     *
         *************************************************************


Following output files will be written:
Converged TS will be written to          ....  TS_search_opt_without_h_NEB-TS_converged.xyz
                                         ....  TS_search_opt_without_h.xyz
Current trajectory will be written to    ....  TS_search_opt_without_h_trj.xyz
Initial Hessian will be stored in        ....  TS_search_opt_without_h.appr.hess
Geometry optimization settings:
Update method            Update   .... Bofill
Choice of coordinates    CoordSys .... Z-matrix Internals
Initial Hessian          InHess   .... Read

Convergence Tolerances:
Energy Change            TolE     ....  5.0000e-06 Eh
Max. Gradient            TolMAXG  ....  3.0000e-04 Eh/bohr
RMS Gradient             TolRMSG  ....  1.0000e-04 Eh/bohr
Max. Displacement        TolMAXD  ....  4.0000e-03 bohr
RMS Displacement         TolRMSD  ....  2.0000e-03 bohr
Strict Convergence                ....  False
------------------------------------------------------------------------------
                        ORCA OPTIMIZATION COORDINATE SETUP
------------------------------------------------------------------------------

The optimization will be done in new redundant internal coordinates
Making redundant internal coordinates   ...  (new redundants) done
Following TS mode number                ...     0
TS-active-atoms for coordinate setup... 0 17 
Evaluating the initial hessian          ... (Reading Exact Hessian)...  
InHessName: TS_search_opt_without_h.appr.hess	The file <TS_search_opt_without_h.appr.hess> is opened as a .hess file
done
done
Diagonalizing the Hessian               .... done
Dimension of the hessian                .... 158
Lowest eigenvalues of the non projected Hessian:
 -0.008790275 -0.000000000 -0.000000000 -0.000000000 -0.000000000
done
Evaluating the coordinates              ...  done
Calculating the B-matrix                .... done
Calculating the G-matrix                .... done
Diagonalizing the G-matrix              .... done
The first mode is                       ....  110
The number of degrees of freedom        ....   48

    -----------------------------------------------------------------
                    Redundant Internal Coordinates


    -----------------------------------------------------------------
         Definition                    Initial Value    d2E/dq (diagonal element)
    -----------------------------------------------------------------
      1. B(N   1,C   0)                  1.3370         0.198721   
      2. B(C   2,C   0)                  2.3040         0.123416   
      3. B(C   2,N   1)                  1.3299         0.317654   
      4. B(C   3,C   0)                  2.7791         0.102778   
      5. B(C   3,C   2)                  1.3927         0.449331   
      6. B(C   4,C   3)                  1.3810         0.486267   
      7. B(C   4,C   0)                  2.4388         0.108751   
      8. B(C   5,C   4)                  1.3870         0.291463   
      9. B(C   5,C   0)                  1.4280         0.138101   
     10. B(N   6,C   0)                  2.4919         0.087937   
     11. B(N   6,C   5)                  1.4296         0.239963   
     12. B(O   7,C   0)                  2.8171         0.063919   
     13. B(O   7,N   6)                  1.2209         0.725623   
     14. B(O   8,N   6)                  1.2282         0.907281   
     15. B(F   9,C   0)                  1.3675         0.304988   
     16. B(H  10,C   2)                  1.0868         0.365454   
     17. B(H  11,C   3)                  1.0833         0.369841   
     18. B(H  12,C   4)                  1.0847         0.367240   
     19. B(H  14,C  13)                  1.0939         0.227115   
     20. B(H  14,F   9)                  2.9421         0.027537   
     21. B(H  14,O   7)                  2.7755         0.029783   
     22. B(H  15,C  13)                  1.0951         0.289855   
     23. B(H  16,C  13)                  1.0942         0.286743   
     24. B(S  17,H  14)                  2.4645         0.065493   
     25. B(S  17,O   7)                  3.3227         0.013715   
     26. B(S  17,N   6)                  3.3400         0.022838   
     27. B(S  17,F   9)                  2.8389         0.051985   
     28. B(S  17,C   5)                  3.1269         0.044508   
     29. B(S  17,N   1)                  3.1429         0.068343   
     30. B(S  17,C   0)                  2.4756         0.002434   
     31. B(S  17,C  13)                  1.8314         0.135138   
     32. B(S  17,H  16)                  2.4634         0.066232   
     33. B(S  17,H  15)                  2.4277         0.078057   
     34. A(N   1,C   0,F   9)          112.3753         0.011536   
     35. A(F   9,C   0,S  17)           90.5151         0.006602   
     36. A(C   5,C   0,S  17)          103.1623         0.007421   
     37. A(N   1,C   0,S  17)          107.2401         0.010695   
     38. A(C   5,C   0,F   9)          118.6169         0.011512   
     39. A(N   1,C   0,C   5)          119.2554         0.020755   
     40. A(C   0,N   1,S  17)           48.7884         0.005561   
     41. A(C   2,N   1,S  17)          129.9133         0.020825   
     42. A(C   0,N   1,C   2)          119.5219         0.026837   
     43. A(C   3,C   2,H  10)          119.6141         0.193946   
     44. A(N   1,C   2,C   3)          124.5241         0.058530   
     45. A(N   1,C   2,H  10)          115.8125         0.194237   
     46. A(C   2,C   3,C   4)          116.8959         0.065166   
     47. A(C   4,C   3,H  11)          121.8862         0.194221   
     48. A(C   2,C   3,H  11)          121.2121         0.193869   
     49. A(C   3,C   4,C   5)          119.3229         0.053725   
     50. A(C   5,C   4,H  12)          119.0469         0.191083   
     51. A(C   3,C   4,H  12)          121.6016         0.191464   
     52. A(C   0,C   5,N   6)          121.3889         0.032676   
     53. A(C   0,C   5,C   4)          120.0668         0.021180   
     54. A(C   4,C   5,S  17)          133.3816         0.015355   
     55. A(N   6,C   5,S  17)           85.7308         0.013211   
     56. A(C   0,C   5,S  17)           50.4350         0.003297   
     57. A(C   4,C   5,N   6)          118.3847         0.038370   
     58. A(C   5,N   6,O   8)          118.3432         0.245659   
     59. A(O   7,N   6,O   8)          122.5013         0.253003   
     60. A(C   5,N   6,O   7)          119.1309         0.075912   
     61. A(C   0,F   9,S  17)           60.6903         0.004981   
     62. A(H  16,C  13,S  17)          112.2446         0.093237   
     63. A(H  15,C  13,S  17)          109.5180         0.090512   
     64. A(H  14,C  13,S  17)          112.3384         0.075472   
     65. A(H  15,C  13,H  16)          107.2734         0.074233   
     66. A(H  14,C  13,H  15)          107.2632         0.068620   
     67. A(H  14,C  13,H  16)          107.9573         0.077789   
     68. A(C   0,S  17,C  13)          112.6880         0.018270   
     69. A(C   5,S  17,F   9)           47.2241         0.010427   
     70. A(N   1,S  17,F   9)           43.7623         0.010882   
     71. A(C   0,S  17,F   9)           28.7946         0.010497   
     72. A(F   9,S  17,C  13)           84.7176         0.015920   
     73. A(N   1,S  17,C   5)           44.7337         0.007277   
     74. A(C   0,S  17,C   5)           26.4027         0.004291   
     75. A(C   5,S  17,C  13)          116.8604         0.018545   
     76. A(C   0,S  17,N   1)           23.9715         0.005511   
     77. A(N   1,S  17,C  13)          125.7668         0.016781   
     78. D(S  17,N   1,C   0,C   5)    116.5580         0.008106   
     79. D(C   2,N   1,C   0,C   5)     -2.4037         0.011282   
     80. D(S  17,N   1,C   0,F   9)    -97.9279         0.009076   
     81. D(C   2,N   1,C   0,S  17)   -118.9617         0.013174   
     82. D(C   2,N   1,C   0,F   9)    143.1104         0.012164   
     83. D(H  10,C   2,N   1,C   0)    178.9368         0.012760   
     84. D(C   3,C   2,N   1,S  17)    -62.7452         0.013530   
     85. D(H  10,C   2,N   1,S  17)    119.8290         0.015399   
     86. D(C   3,C   2,N   1,C   0)     -3.6374         0.013538   
     87. D(H  11,C   3,C   2,N   1)   -172.0450         0.011558   
     88. D(H  11,C   3,C   2,H  10)      5.2894         0.013362   
     89. D(C   4,C   3,C   2,H  10)   -175.5704         0.011839   
     90. D(C   4,C   3,C   2,N   1)      7.0951         0.011438   
     91. D(C   5,C   4,C   3,H  11)    174.7880         0.010715   
     92. D(C   5,C   4,C   3,C   2)     -4.3459         0.009037   
     93. D(H  12,C   4,C   3,C   2)    177.6175         0.009609   
     94. D(H  12,C   4,C   3,H  11)     -3.2485         0.012177   
     95. D(N   6,C   5,C   4,C   3)    174.2794         0.008675   
     96. D(N   6,C   5,C   0,S  17)    -51.8852         0.004292   
     97. D(S  17,C   5,C   0,F   9)     97.9384         0.007345   
     98. D(S  17,C   5,C   0,N   1)   -118.6765         0.010093   
     99. D(C   0,C   5,C   4,C   3)     -1.1930         0.010094   
    100. D(N   6,C   5,C   4,H  12)     -7.6335         0.009193   
    101. D(N   6,C   5,C   0,F   9)     46.0532         0.006834   
    102. D(N   6,C   5,C   0,N   1)   -170.5617         0.007603   
    103. D(C   4,C   5,C   0,S  17)    123.4484         0.009730   
    104. D(S  17,C   5,C   4,H  12)   -120.8519         0.011350   
    105. D(S  17,C   5,C   4,C   3)     61.0610         0.010629   
    106. D(C   4,C   5,C   0,F   9)   -138.6133         0.011054   
    107. D(C   4,C   5,C   0,N   1)      4.7718         0.010640   
    108. D(C   0,C   5,C   4,H  12)    176.8941         0.010049   
    109. D(O   8,N   6,C   5,S  17)    115.3338         0.008806   
    110. D(O   8,N   6,C   5,C   4)    -22.6154         0.010941   
    111. D(O   8,N   6,C   5,C   0)    152.7943         0.009526   
    112. D(O   7,N   6,C   5,S  17)    -62.9111         0.009588   
    113. D(O   7,N   6,C   5,C   4)    159.1397         0.013007   
    114. D(O   7,N   6,C   5,C   0)    -25.4505         0.012212   
    115. D(S  17,F   9,C   0,C   5)   -105.3262         0.008207   
    116. D(S  17,F   9,C   0,N   1)    108.9184         0.012865   
    117. D(N   1,S  17,C   5,C   4)    -68.9514         0.020832   
    118. D(N   1,S  17,C   5,C   0)     27.5577         0.007687   
    119. D(C   0,S  17,C   5,N   6)    137.6622         0.013870   
    120. D(C  13,S  17,C   5,N   6)     50.4040         0.013708   
    121. D(C  13,S  17,C   5,C   4)    176.2326         0.019146   
    122. D(C  13,S  17,C   5,C   0)    -87.2582         0.010257   
    123. D(F   9,S  17,N   1,C   0)     39.6302         0.012529   
    124. D(C   5,S  17,N   1,C   2)     66.5487         0.020817   
    125. D(C   5,S  17,N   1,C   0)    -30.4218         0.008410   
    126. D(C   0,S  17,N   1,C   2)     96.9705         0.020922   
    127. D(C  13,S  17,N   1,C   2)    160.2238         0.023924   
    128. D(C  13,S  17,N   1,C   0)     63.2533         0.016743   
    129. D(F   9,S  17,C   0,C   5)    119.6035         0.012054   
    130. D(F   9,S  17,C   0,N   1)   -113.6648         0.012568   
    131. D(F   9,S  17,N   1,C   2)    136.6007         0.030259   
    132. D(C   5,S  17,C   0,F   9)   -119.6035         0.012054   
    133. D(C   5,S  17,C   0,N   1)    126.7317         0.014609   
    134. D(N   1,S  17,C   0,F   9)    113.6648         0.012568   
    135. D(C   0,S  17,C   5,C   4)    -96.5092         0.018914   
    136. D(N   1,S  17,C   0,C   5)   -126.7317         0.014609   
    137. D(C  13,S  17,C   0,F   9)    -14.5814         0.008017   
    138. D(C  13,S  17,C   0,C   5)    105.0221         0.009784   
    139. D(N   1,S  17,C   5,N   6)    165.2199         0.014649   
    140. D(F   9,S  17,C  13,H  16)     80.6542         0.013344   
    141. D(F   9,S  17,C  13,H  15)   -160.3106         0.013348   
    142. D(C  13,S  17,C   0,N   1)   -128.2462         0.009913   
    143. D(C   5,S  17,C  13,H  16)    116.4273         0.013588   
    144. D(C   5,S  17,C  13,H  15)   -124.5375         0.014068   
    145. D(C   5,S  17,C  13,H  14)     -5.4557         0.014261   
    146. D(N   1,S  17,C  13,H  15)   -176.4721         0.015443   
    147. D(N   1,S  17,C  13,H  14)    -57.3903         0.013245   
    148. D(C   0,S  17,C  13,H  16)     87.6491         0.011507   
    149. D(C   0,S  17,C  13,H  15)   -153.3157         0.011759   
    150. D(C   0,S  17,C  13,H  14)    -34.2340         0.011435   
    151. D(N   1,S  17,C  13,H  16)     64.4927         0.014723   
    152. D(C   5,S  17,F   9,C   0)     31.7850         0.009182   
    153. D(N   1,S  17,F   9,C   0)    -32.5477         0.011726   
    154. D(C  13,S  17,F   9,C   0)    166.5106         0.007611   
    155. D(F   9,S  17,C  13,H  14)    -41.2288         0.014138   
    156. D(F   9,S  17,C   5,N   6)    102.8732         0.017813   
    157. D(F   9,S  17,C   5,C   4)   -131.2981         0.024821   
    158. D(F   9,S  17,C   5,C   0)    -34.7889         0.010097   
    -----------------------------------------------------------------

Number of atoms                         .... 18
Number of degrees of freedom            .... 158

         *************************************************************
         *                GEOMETRY OPTIMIZATION CYCLE   1            *
         *************************************************************


           ************************************************************
           *        Program running with 24 parallel MPI-processes    *
           *              working on a common directory               *
           ************************************************************
------------------------------------------------------------------------------
                           ORCA GTO INTEGRAL CALCULATION
                           -- RI-GTO INTEGRALS CHOSEN --
------------------------------------------------------------------------------
------------------------------------------------------------------------------
                   ___                                                        
                  /   \      - P O W E R E D   B Y -                         
                 /     \                                                     
                 |  |  |   _    _      __       _____    __    __             
                 |  |  |  | |  | |    /  \     |  _  \  |  |  /  |          
                  \  \/   | |  | |   /    \    | | | |  |  | /  /          
                 / \  \   | |__| |  /  /\  \   | |_| |  |  |/  /          
                |  |  |   |  __  | /  /__\  \  |    /   |      \           
                |  |  |   | |  | | |   __   |  |    \   |  |\   \          
                \     /   | |  | | |  |  |  |  | |\  \  |  | \   \       
                 \___/    |_|  |_| |__|  |__|  |_| \__\ |__|  \__/        
                                                                              
                      - O R C A' S   B I G   F R I E N D -                    
                                      &                                       
                       - I N T E G R A L  F E E D E R -                       
                                                                              
 v1 FN, 2020, v2 2021                                                         
------------------------------------------------------------------------------


Reading SHARK input file TS_search_opt_without_h.SHARKINP.tmp ... ok
----------------------
SHARK INTEGRAL PACKAGE
----------------------

Number of atoms                             ...     18
Number of basis functions                   ...    314
Number of shells                            ...    154
Maximum angular momentum                    ...      2
Integral batch strategy                     ... SHARK/LIBINT Hybrid
RI-J (if used) integral strategy            ... SPLIT-RIJ (Revised 2003 algorithm where possible)
Printlevel                                  ...      1
Contraction scheme used                     ... SEGMENTED contraction
Coulomb Range Separation                    ... NOT USED
Exchange Range Separation                   ... Long Range
   Mu parameter                             ...  0.300000
   Scaling (regular/separated)              ...  0.157706  0.842294
Finite Nucleus Model                        ... NOT USED
Auxiliary Coulomb fitting basis             ... AVAILABLE
   # of basis functions in Aux-J            ...    656
   # of shells in Aux-J                     ...    212
   Maximum angular momentum in Aux-J        ...      4
Auxiliary J/K fitting basis                 ... NOT available
Auxiliary Correlation fitting basis         ... NOT available
Auxiliary 'external' fitting basis          ... NOT available
Integral threshold                          ...     2.500000e-11
Primitive cut-off                           ...     2.500000e-12
Primitive pair pre-selection threshold      ...     2.500000e-12

Calculating pre-screening integrals         ... done (  0.1 sec) Dimension = 154
Organizing shell pair data                  ... done (  0.1 sec)
Shell pair information
Total number of shell pairs                 ...     11935
Shell pairs after pre-screening             ...     10290
Total number of primitive shell pairs       ...     38500
Primitive shell pairs kept                  ...     23514
          la=0 lb=0:   3144 shell pairs
          la=1 lb=0:   4201 shell pairs
          la=1 lb=1:   1435 shell pairs
          la=2 lb=0:    843 shell pairs
          la=2 lb=1:    597 shell pairs
          la=2 lb=2:     70 shell pairs

Calculating one electron integrals          ... done (  0.0 sec)
Calculating RI/J V-Matrix + Cholesky decomp.... done (  0.1 sec)
Calculating Nuclear repulsion               ... done (  0.0 sec) ENN=    814.435572886269 Eh

SHARK setup successfully completed in   0.6 seconds

Maximum memory used throughout the entire GTOINT-calculation: 17.1 MB


           ************************************************************
           *        Program running with 24 parallel MPI-processes    *
           *              working on a common directory               *
           ************************************************************
-------------------------------------------------------------------------------
                                 ORCA SCF
-------------------------------------------------------------------------------

------------
SCF SETTINGS
------------
Hamiltonian:
 Density Functional     Method          .... DFT(GTOs)
 Exchange Functional    Exchange        .... WB97X
 Correlation Functional Correlation     .... WB97X
 Gradients option       PostSCFGGA      .... off
 Hybrid DFT is turned on
   Fraction HF Exchange ScalHFX         ....  0.157706
   Scaling of DF-GGA-X  ScalDFX         ....  0.000000
   Scaling of DF-GGA-C  ScalDFC         ....  1.000000
   Scaling of DF-LDA-C  ScalLDAC        ....  1.000000
   Perturbative correction              ....  0.000000
   Density functional embedding theory  .... OFF
 Long-range corrected/Screened/Range-Separated Hybrid DFT is turned on
   Amount of maximum screened exact exchange              ....  0.842294
   Range separation parameter mu (erf(mu*r12)/r12)        ....  0.300000
 RI-approximation to the Coulomb term is turned on
   Number of AuxJ basis functions       .... 656
   RIJ-COSX (HFX calculated with COS-X)).... on


General Settings:
 Integral files         IntName         .... TS_search_opt_without_h
 Hartree-Fock type      HFTyp           .... RHF
 Total Charge           Charge          ....   -1
 Multiplicity           Mult            ....    1
 Number of Electrons    NEL             ....   98
 Basis Dimension        Dim             ....  314
 Nuclear Repulsion      ENuc            ....    814.4355728863 Eh

Convergence Acceleration:
 DIIS                   CNVDIIS         .... on
   Start iteration      DIISMaxIt       ....    12
   Startup error        DIISStart       ....  0.200000
   # of expansion vecs  DIISMaxEq       ....     5
   Bias factor          DIISBfac        ....   1.050
   Max. coefficient     DIISMaxC        ....  10.000
 Trust-Rad. Augm. Hess. CNVTRAH         .... auto
   Auto Start mean grad. ratio tolernc. ....  1.125000
   Auto Start start iteration           ....     1
   Auto Start num. interpolation iter.  ....    10
   Max. Number of Micro iterations      ....    16
   Max. Number of Macro iterations      .... Maxiter - #DIIS iter
   Number of Davidson start vectors     ....     2
   Converg. threshold I  (grad. norm)   ....   1.000e-05
   Converg. threshold II (energy diff.) ....   1.000e-08
   Grad. Scal. Fac. for Micro threshold ....   0.100
   Minimum threshold for Micro iter.    ....   0.010
   NR start threshold (gradient norm)   ....   0.001
   Initial trust radius                 ....   0.400
   Minimum AH scaling param. (alpha)    ....   1.000
   Maximum AH scaling param. (alpha)    .... 1000.000
   Orbital update algorithm             .... Taylor
   White noise on init. David. guess    .... on
   Maximum white noise                  ....   0.010
   Quad. conv. algorithm                .... NR
 SOSCF                  CNVSOSCF        .... on
   Start iteration      SOSCFMaxIt      ....   150
   Startup grad/error   SOSCFStart      ....  0.003300
 Level Shifting         CNVShift        .... on
   Level shift para.    LevelShift      ....    0.2500
   Turn off err/grad.   ShiftErr        ....    0.0010
 Zerner damping         CNVZerner       .... off
 Static damping         CNVDamp         .... on
   Fraction old density DampFac         ....    0.7000
   Max. Damping (<1)    DampMax         ....    0.9800
   Min. Damping (>=0)   DampMin         ....    0.0000
   Turn off err/grad.   DampErr         ....    0.1000
 Fernandez-Rico         CNVRico         .... off

SCF Procedure:
 Maximum # iterations   MaxIter         ....   125
 SCF integral mode      SCFMode         .... Direct
   Integral package                     .... SHARK and LIBINT hybrid scheme
 Reset frequency        DirectResetFreq ....    20
 Integral Threshold     Thresh          ....  2.500e-11 Eh
 Primitive CutOff       TCut            ....  2.500e-12 Eh

Convergence Tolerance:
 Convergence Check Mode ConvCheckMode   .... Total+1el-Energy
 Convergence forced     ConvForced      .... 0
 Energy Change          TolE            ....  1.000e-08 Eh
 1-El. energy change                    ....  1.000e-05 Eh
 Orbital Gradient       TolG            ....  1.000e-05
 Orbital Rotation angle TolX            ....  1.000e-05
 DIIS Error             TolErr          ....  5.000e-07


Diagonalization of the overlap matrix:
Smallest eigenvalue                        ... 2.831e-06
Time for diagonalization                   ...    0.022 sec
Threshold for overlap eigenvalues          ... 1.000e-08
Number of eigenvalues below threshold      ... 0
Time for construction of square roots      ...    0.077 sec
Total time needed                          ...    0.101 sec

---------------------
INITIAL GUESS: MOREAD
---------------------
Guess MOs are being read from file: TS_search_opt_without_h.gbw
Input Geometry matches current geometry (good)
Input basis set matches current basis set (good)
MOs were renormalized
MOs were reorthogonalized (Cholesky)
                      ------------------
                      INITIAL GUESS DONE (   0.0 sec)
                      ------------------
-------------------
DFT GRID GENERATION
-------------------

General Integration Accuracy     IntAcc      ... 4.388
Radial Grid Type                 RadialGrid  ... OptM3 with GC (2021)
Angular Grid (max. ang.)         AngularGrid ... 4 (Lebedev-302)
Angular grid pruning method      GridPruning ... 4 (adaptive)
Weight generation scheme         WeightScheme... Becke
Basis function cutoff            BFCut       ... 1.0000e-11
Integration weight cutoff        WCut        ... 1.0000e-14
Angular grids for H and He will be reduced by one unit
Partially contracted basis set               ... off
Rotationally invariant grid construction     ... off

Total number of grid points                  ...    97694
Total number of batches                      ...     1536
Average number of points per batch           ...       63
Average number of grid points per atom       ...     5427
Time for grid setup =    0.624 sec

--------------------
COSX GRID GENERATION
--------------------

GRIDX 1
-------
General Integration Accuracy     IntAcc      ... 3.816
Radial Grid Type                 RadialGrid  ... OptM3 with GC (2021)
Angular Grid (max. ang.)         AngularGrid ... 1 (Lebedev-50)
Angular grid pruning method      GridPruning ... 4 (adaptive)
Weight generation scheme         WeightScheme... Becke
Basis function cutoff            BFCut       ... 1.0000e-11
Integration weight cutoff        WCut        ... 1.0000e-14
Angular grids for H and He will be reduced by one unit
Partially contracted basis set               ... on
Rotationally invariant grid construction     ... off

Total number of grid points                  ...    12193
Total number of batches                      ...      198
Average number of points per batch           ...       61
Average number of grid points per atom       ...      677
UseSFitting                                  ... on

GRIDX 2
-------
General Integration Accuracy     IntAcc      ... 4.020
Radial Grid Type                 RadialGrid  ... OptM3 with GC (2021)
Angular Grid (max. ang.)         AngularGrid ... 2 (Lebedev-110)
Angular grid pruning method      GridPruning ... 4 (adaptive)
Weight generation scheme         WeightScheme... Becke
Basis function cutoff            BFCut       ... 1.0000e-11
Integration weight cutoff        WCut        ... 1.0000e-14
Angular grids for H and He will be reduced by one unit
Partially contracted basis set               ... on
Rotationally invariant grid construction     ... off

Total number of grid points                  ...    30546
Total number of batches                      ...      485
Average number of points per batch           ...       62
Average number of grid points per atom       ...     1697
UseSFitting                                  ... on

GRIDX 3
-------
General Integration Accuracy     IntAcc      ... 4.338
Radial Grid Type                 RadialGrid  ... OptM3 with GC (2021)
Angular Grid (max. ang.)         AngularGrid ... 3 (Lebedev-194)
Angular grid pruning method      GridPruning ... 4 (adaptive)
Weight generation scheme         WeightScheme... Becke
Basis function cutoff            BFCut       ... 1.0000e-11
Integration weight cutoff        WCut        ... 1.0000e-14
Angular grids for H and He will be reduced by one unit
Partially contracted basis set               ... on
Rotationally invariant grid construction     ... off

Total number of grid points                  ...    67863
Total number of batches                      ...     1071
Average number of points per batch           ...       63
Average number of grid points per atom       ...     3770
UseSFitting                                  ... on

Time for X-Grid setup             =    0.948 sec


--------------------
CPCM SOLVATION MODEL
--------------------
CPCM parameters:
  Epsilon                                         ...      78.3550
  Refrac                                          ...       1.3328
  Rsolv                                           ...       1.3000
  Surface type                                    ... GAUSSIAN VDW
  Epsilon function type                           ...         CPCM
Solvent:                                     ... WATER
SMD-CDS solvent descriptors:
  Soln                                       ...    1.3328
  Soln25                                     ...    1.3323
  Sola                                       ...    0.0000
  Solb                                       ...    0.0000
  Solg                                       ...    0.0000
  Solc                                       ...    0.0000
  Solh                                       ...    0.0000
Radii:
 Radius for C  used is    3.4960 Bohr (=   1.8500 Ang.)
 Radius for N  used is    3.5716 Bohr (=   1.8900 Ang.)
 Radius for O  used is    2.8724 Bohr (=   1.5200 Ang.)
 Radius for F  used is    3.2692 Bohr (=   1.7300 Ang.)
 Radius for H  used is    2.2677 Bohr (=   1.2000 Ang.)
 Radius for S  used is    4.7054 Bohr (=   2.4900 Ang.)
Calculating surface                               ...        done! (  0.0s)
GEPOL surface points                              ...         1072
GEPOL Volume                                      ...    1271.2590
GEPOL Surface-area                                ...     710.1951
Calculating surface distance matrix               ...        done! (  0.0s)
Performing Cholesky decomposition & store         ...        done! (  0.1s)
Overall time for CPCM initialization              ...                 0.1s
--------------
SCF ITERATIONS
--------------
ITER       Energy         Delta-E        Max-DP      RMS-DP      [F,P]     Damp
               ***  Starting incremental Fock matrix formation  ***
                      *** Initiating the SOSCF procedure ***
                      *** Re-Reading the Fockian *** 
                      *** Removing any level shift *** 
ITER      Energy       Delta-E        Grad      Rot      Max-DP    RMS-DP
  0   -990.26366129 -990.2636612935  0.000002  0.000002  0.020394  0.000177
               *** Restarting incremental Fock matrix formation ***
                  ***Gradient check signals convergence***
              ***Rediagonalizing the Fockian in SOSCF/NRSCF***

               *****************************************************
               *                     SUCCESS                       *
               *           SCF CONVERGED AFTER   1 CYCLES          *
               *****************************************************

Old exchange energy                            =    -28.482993547 Eh
New exchange energy                            =    -28.483010850 Eh
Exchange energy change after final integration =     -0.000017304 Eh
Total energy after final integration           =   -990.263678598 Eh
Final COS-X integration done in                =     6.540 sec

SMD CDS free energy correction energy :                 5.23301     Kcal/mol
Total Energy after SMD CDS correction =              -990.255339264 Eh

----------------
TOTAL SCF ENERGY
----------------

Total Energy       :         -990.25533926 Eh          -26946.21770 eV

Components:
Nuclear Repulsion  :          814.43557289 Eh           22161.91863 eV
Electronic Energy  :        -1804.69091215 Eh          -49108.13633 eV
One Electron Energy:        -2993.50840003 Eh          -81457.50478 eV
Two Electron Energy:         1188.81748788 Eh           32349.36846 eV
Max COSX asymmetry :            0.00000228 Eh               0.00006 eV
CPCM Dielectric    :           -0.10306586 Eh              -2.80456 eV
SMD CDS (Gcds)     :            0.00833933 Eh               0.22692 eV

Virial components:
Potential Energy   :        -1978.33163196 Eh          -53833.14053 eV
Kinetic Energy     :          988.07629269 Eh           26886.92283 eV
Virial Ratio       :            2.00220534


DFT components:
N(Alpha)           :       49.000002859761 electrons
N(Beta)            :       49.000002859761 electrons
N(Total)           :       98.000005719522 electrons
E(XC)              :      -73.541453621113 Eh       
DFET-embed. en.    :        0.000000000000 Eh       
CPCM Solvation Model Properties:
Surface-charge          :            0.95196853
Charge-correction       :           -0.00595614 Eh              -0.16207 eV
Free-energy (cav+disp)  :            0.00833933 Eh               0.22692 eV

---------------
SCF CONVERGENCE
---------------

  Last Energy change         ...   -6.4222e-10  Tolerance :   1.0000e-08
  Last MAX-Density change    ...    5.3291e-15  Tolerance :   1.0000e-07
  Last RMS-Density change    ...    5.2290e-17  Tolerance :   5.0000e-09
  Last Orbital Gradient      ...    2.2278e-06  Tolerance :   1.0000e-05
  Last Orbital Rotation      ...    5.4489e-06  Tolerance :   1.0000e-05

             **** THE GBW FILE WAS UPDATED (TS_search_opt_without_h.gbw) ****
             **** DENSITY TS_search_opt_without_h.scfp WAS UPDATED ****
             **** ENERGY FILE WAS UPDATED (TS_search_opt_without_h.en.tmp) ****
             **** THE GBW FILE WAS UPDATED (TS_search_opt_without_h.gbw) ****
             **** DENSITY TS_search_opt_without_h.scfp WAS UPDATED ****
----------------
ORBITAL ENERGIES
----------------

  NO   OCC          E(Eh)            E(eV) 
   0   2.0000     -88.750967     -2415.0366 
   1   2.0000     -24.745156      -673.3499 
   2   2.0000     -19.234958      -523.4098 
   3   2.0000     -19.231472      -523.3150 
   4   2.0000     -14.646104      -398.5408 
   5   2.0000     -14.395546      -391.7227 
   6   2.0000     -10.413086      -283.3545 
   7   2.0000     -10.314083      -280.6605 
   8   2.0000     -10.310737      -280.5694 
   9   2.0000     -10.293830      -280.1094 
  10   2.0000     -10.259291      -279.1695 
  11   2.0000     -10.247342      -278.8444 
  12   2.0000      -7.946671      -216.2399 
  13   2.0000      -5.909675      -160.8104 
  14   2.0000      -5.903819      -160.6511 
  15   2.0000      -5.901030      -160.5752 
  16   2.0000      -1.379366       -37.5345 
  17   2.0000      -1.350688       -36.7541 
  18   2.0000      -1.194085       -32.4927 
  19   2.0000      -1.092971       -29.7413 
  20   2.0000      -0.985175       -26.8080 
  21   2.0000      -0.922052       -25.0903 
  22   2.0000      -0.849000       -23.1025 
  23   2.0000      -0.842548       -22.9269 
  24   2.0000      -0.771584       -20.9959 
  25   2.0000      -0.741963       -20.1898 
  26   2.0000      -0.697034       -18.9673 
  27   2.0000      -0.688861       -18.7449 
  28   2.0000      -0.672159       -18.2904 
  29   2.0000      -0.659590       -17.9483 
  30   2.0000      -0.650518       -17.7015 
  31   2.0000      -0.619368       -16.8539 
  32   2.0000      -0.595840       -16.2136 
  33   2.0000      -0.587648       -15.9907 
  34   2.0000      -0.537098       -14.6152 
  35   2.0000      -0.519845       -14.1457 
  36   2.0000      -0.505467       -13.7545 
  37   2.0000      -0.501106       -13.6358 
  38   2.0000      -0.498504       -13.5650 
  39   2.0000      -0.490997       -13.3607 
  40   2.0000      -0.441866       -12.0238 
  41   2.0000      -0.428618       -11.6633 
  42   2.0000      -0.419433       -11.4134 
  43   2.0000      -0.417793       -11.3687 
  44   2.0000      -0.398165       -10.8346 
  45   2.0000      -0.386702       -10.5227 
  46   2.0000      -0.352384        -9.5889 
  47   2.0000      -0.281044        -7.6476 
  48   2.0000      -0.269916        -7.3448 
  49   0.0000      -0.019755        -0.5376 
  50   0.0000       0.048813         1.3283 
  51   0.0000       0.056211         1.5296 
  52   0.0000       0.062912         1.7119 
  53   0.0000       0.068169         1.8550 
  54   0.0000       0.072891         1.9835 
  55   0.0000       0.082767         2.2522 
  56   0.0000       0.088751         2.4150 
  57   0.0000       0.093757         2.5513 
  58   0.0000       0.102419         2.7870 
  59   0.0000       0.113578         3.0906 
  60   0.0000       0.126626         3.4457 
  61   0.0000       0.129059         3.5119 
  62   0.0000       0.133301         3.6273 
  63   0.0000       0.137523         3.7422 
  64   0.0000       0.151389         4.1195 
  65   0.0000       0.161639         4.3984 
  66   0.0000       0.167572         4.5599 
  67   0.0000       0.171287         4.6610 
  68   0.0000       0.173235         4.7140 
  69   0.0000       0.177888         4.8406 
  70   0.0000       0.178349         4.8531 
  71   0.0000       0.187057         5.0901 
  72   0.0000       0.191014         5.1977 
  73   0.0000       0.197039         5.3617 
  74   0.0000       0.202247         5.5034 
  75   0.0000       0.205426         5.5899 
  76   0.0000       0.208081         5.6622 
  77   0.0000       0.214355         5.8329 
  78   0.0000       0.219345         5.9687 
  79   0.0000       0.224292         6.1033 
  80   0.0000       0.226930         6.1751 
  81   0.0000       0.235808         6.4167 
  82   0.0000       0.244452         6.6519 
  83   0.0000       0.250733         6.8228 
  84   0.0000       0.255354         6.9485 
  85   0.0000       0.262968         7.1557 
  86   0.0000       0.270015         7.3475 
  87   0.0000       0.270475         7.3600 
  88   0.0000       0.280589         7.6352 
  89   0.0000       0.284203         7.7336 
  90   0.0000       0.288207         7.8425 
  91   0.0000       0.295342         8.0367 
  92   0.0000       0.306450         8.3389 
  93   0.0000       0.312465         8.5026 
  94   0.0000       0.322190         8.7672 
  95   0.0000       0.326201         8.8764 
  96   0.0000       0.337818         9.1925 
  97   0.0000       0.341381         9.2895 
  98   0.0000       0.345058         9.3895 
  99   0.0000       0.354011         9.6331 
 100   0.0000       0.361350         9.8328 
 101   0.0000       0.368665        10.0319 
 102   0.0000       0.370694        10.0871 
 103   0.0000       0.375319        10.2129 
 104   0.0000       0.384610        10.4658 
 105   0.0000       0.392433        10.6786 
 106   0.0000       0.400325        10.8934 
 107   0.0000       0.408766        11.1231 
 108   0.0000       0.414354        11.2751 
 109   0.0000       0.421163        11.4604 
 110   0.0000       0.432408        11.7664 
 111   0.0000       0.440440        11.9850 
 112   0.0000       0.445592        12.1252 
 113   0.0000       0.455338        12.3904 
 114   0.0000       0.459282        12.4977 
 115   0.0000       0.470902        12.8139 
 116   0.0000       0.473370        12.8810 
 117   0.0000       0.480295        13.0695 
 118   0.0000       0.488625        13.2962 
 119   0.0000       0.493775        13.4363 
 120   0.0000       0.507914        13.8211 
 121   0.0000       0.526187        14.3183 
 122   0.0000       0.535201        14.5636 
 123   0.0000       0.547542        14.8994 
 124   0.0000       0.569209        15.4890 
 125   0.0000       0.601135        16.3577 
 126   0.0000       0.620891        16.8953 
 127   0.0000       0.624873        17.0037 
 128   0.0000       0.632749        17.2180 
 129   0.0000       0.652578        17.7575 
 130   0.0000       0.660323        17.9683 
 131   0.0000       0.672387        18.2966 
 132   0.0000       0.683756        18.6059 
 133   0.0000       0.695120        18.9152 
 134   0.0000       0.719726        19.5847 
 135   0.0000       0.730737        19.8844 
 136   0.0000       0.733502        19.9596 
 137   0.0000       0.748993        20.3811 
[...]
      9      -0.000547   0.000259   0.101727  -0.067177  -0.322600   0.106121
     10       0.001064   0.001136  -0.088573   0.082771   0.280926  -0.026821
     11       0.002038   0.003357  -0.013660   0.078742   0.041287   0.169186
     12      -0.001590  -0.001299   0.045721   0.015504   0.208698  -0.214354
     13       0.000790   0.001423   0.031666  -0.008819  -0.176714   0.060870
     14      -0.001899   0.000534   0.174063   0.017393   0.016314  -0.311793
     15       0.002903   0.003191  -0.082250  -0.034772  -0.091824   0.070607
     16      -0.003409  -0.005324   0.005094  -0.012623   0.191158   0.049459
     17      -0.001387  -0.004347  -0.150770  -0.086019   0.210144   0.255604
     18      -0.001694  -0.006151  -0.062393   0.027945  -0.076187   0.015578
     19      -0.003179   0.002936  -0.006656   0.345867  -0.039853  -0.048680
     20      -0.006077  -0.003526  -0.081765   0.502959  -0.162904  -0.049517
     21       0.001751   0.002736   0.049953  -0.105922   0.040718  -0.007452
     22       0.000924   0.000944   0.022690  -0.098244   0.031743   0.007347
     23       0.003408   0.004158   0.088108  -0.255275   0.093697   0.002122
     24      -0.000987   0.001211   0.011141   0.083807   0.016118  -0.010083
     25       0.002119  -0.001917  -0.013576  -0.184811  -0.007827   0.026416
     26       0.001604  -0.001020  -0.005011  -0.146917   0.010486   0.024375
     27       0.000146   0.000139  -0.009111  -0.013027  -0.007585  -0.005483
     28      -0.000028   0.000080   0.008184   0.008709   0.005431  -0.003567
     29      -0.001075  -0.001471  -0.000078  -0.013497   0.018819  -0.002727
     30       0.000348  -0.002431  -0.144993  -0.033662   0.112194  -0.124418
     31       0.003098   0.011515   0.243650   0.192055  -0.000604   0.217056
     32       0.009309   0.030231   0.462956   0.542140   0.264450   0.428382
     33       0.004278  -0.001395  -0.441631   0.043529   0.350507   0.035275
     34      -0.003062   0.002672   0.405838  -0.002353  -0.327716   0.052685
     35       0.001416   0.004626   0.104938   0.070602  -0.109796   0.228849
     36       0.007073   0.005361  -0.297710   0.030810   0.008274   0.295191
     37      -0.002880  -0.001141   0.162285  -0.012226  -0.126637  -0.120727
     38       0.009930   0.010218  -0.244861   0.058823  -0.298726   0.343217
     39      -0.032128  -0.047933   0.001332  -0.001052   0.000183   0.001336
     40       0.052044  -0.036329   0.001477   0.005049  -0.000205  -0.002889
     41       0.015776   0.020252  -0.000475   0.001479  -0.000154   0.001282
     42      -0.076523   0.355321  -0.018566  -0.017059  -0.007238  -0.005921
     43      -0.145652   0.598142  -0.028546  -0.028435  -0.009098  -0.011514
     44       0.416725  -0.024478  -0.001833   0.017796  -0.006515  -0.018206
     45       0.270107   0.592781  -0.025736  -0.009056  -0.009067  -0.028015
     46       0.100264  -0.149294   0.005289   0.015499   0.000216   0.009478
     47      -0.438332  -0.094240   0.008195  -0.037640   0.008244  -0.012298
     48       0.232690  -0.313007   0.016669   0.012881   0.002930  -0.006510
     49      -0.652165   0.037452  -0.002178  -0.048596   0.003651   0.009430
     50      -0.200568  -0.167068   0.010406  -0.017567   0.002582   0.003340
     51      -0.001418  -0.001814  -0.000220  -0.000938  -0.001256  -0.003226
     52       0.002477  -0.001809   0.001665   0.002556   0.000521  -0.003580
     53       0.001025   0.001439  -0.000487  -0.000824  -0.000210   0.000198
                 48         49         50         51         52         53    
      0      -0.000551  -0.000222   0.000110   0.001055  -0.000078  -0.000003
      1      -0.000573  -0.000147   0.000173   0.000163   0.000345  -0.000090
      2       0.000205   0.000121  -0.000521   0.001249   0.000016  -0.000408
      3       0.000237   0.000096  -0.000028   0.000536  -0.000268  -0.000127
      4       0.000068  -0.000004  -0.000058  -0.000154   0.000048  -0.000056
      5       0.000144   0.000064   0.000001   0.000773  -0.000391  -0.000340
      6       0.000079   0.000047   0.000009  -0.071781   0.009764   0.008973
      7      -0.000060  -0.000038  -0.000065   0.040979  -0.006356  -0.006210
      8      -0.000160  -0.000084   0.000005  -0.025416   0.001477   0.000363
      9      -0.000032  -0.000038  -0.000017   0.006107   0.014811   0.022274
     10       0.000014   0.000027   0.000027  -0.000713   0.008514   0.005700
     11       0.000053   0.000004  -0.000001   0.010973   0.054258   0.063470
     12      -0.000022   0.000001  -0.000007   0.000937   0.030599  -0.031703
     13       0.000019  -0.000005  -0.000007  -0.001215  -0.042150   0.040399
     14      -0.000031   0.000010   0.000030  -0.000932  -0.038463   0.031518
     15      -0.000010  -0.000051  -0.000137   0.000075   0.000572  -0.000815
     16       0.000181   0.000150   0.000015  -0.000297   0.000440  -0.000448
     17      -0.000012  -0.000068   0.000032  -0.000360   0.002314  -0.002873
     18       0.000186   0.000194   0.000031   0.000135   0.000357  -0.000320
     19      -0.000107  -0.000001  -0.000015  -0.000058  -0.000670   0.000607
     20       0.000087   0.000188  -0.000033   0.000059  -0.000685   0.000553
     21      -0.000059  -0.000099  -0.000050  -0.000051  -0.000110   0.000145
     22      -0.000044  -0.000115   0.000004   0.000002   0.000079  -0.000102
     23      -0.000108  -0.000143   0.000071  -0.000053  -0.000007   0.000044
     24      -0.000067  -0.000038   0.000008  -0.000042   0.000146  -0.000073
     25       0.000044   0.000017   0.000028   0.000070   0.000154  -0.000162
     26       0.000025  -0.000002   0.000002   0.000057   0.000587  -0.000455
     27      -0.000081   0.000008   0.000238  -0.000068  -0.000013  -0.000010
     28       0.000012   0.000013   0.000101  -0.000013  -0.000039   0.000002
     29      -0.000239  -0.000057   0.000351  -0.000181   0.000010   0.000047
     30      -0.000992  -0.000519  -0.000278   0.815703  -0.099015  -0.083978
     31       0.000528   0.000303   0.000190  -0.459960   0.056798   0.048559
     32      -0.000334  -0.000162  -0.000137   0.300080  -0.033675  -0.027274
     33      -0.000037   0.000134   0.000145  -0.050950  -0.195248  -0.225268
     34       0.000008   0.000050   0.000074  -0.015016  -0.075657  -0.083198
     35       0.000213   0.000396   0.000300  -0.148409  -0.614955  -0.698463
     36       0.000099  -0.000020   0.000137  -0.011535  -0.369857   0.329941
     37      -0.000014   0.000005  -0.000234   0.015119   0.492548  -0.437450
     38       0.000034   0.000038  -0.000220   0.012782   0.420534  -0.368493
     39       0.027370   0.028965   0.073975   0.000073   0.000033   0.000002
     40       0.000126  -0.087285   0.034621  -0.000074  -0.000011  -0.000017
     41       0.037682  -0.020486  -0.045704   0.000020  -0.000027  -0.000011
     42      -0.501984  -0.563175  -0.353519  -0.001134  -0.000209  -0.000083
     43       0.322548   0.343604   0.242045   0.000696   0.000152   0.000095
     44       0.084100   0.083444   0.047607   0.000107   0.000035   0.000030
     45      -0.130787   0.180039  -0.060801  -0.000236  -0.000043   0.000061
     46      -0.549582   0.685302  -0.298848  -0.000285   0.000011   0.000222
     47      -0.158936   0.206962  -0.100769  -0.000254  -0.000039  -0.000001
     48       0.309475   0.040984  -0.464955   0.000123  -0.000246  -0.000030
     49       0.229848   0.006968  -0.358973   0.000151  -0.000124   0.000044
     50      -0.376456  -0.048108   0.597667  -0.000242   0.000211  -0.000025
     51       0.000067  -0.000046  -0.000175  -0.000047  -0.000022  -0.000007
     52       0.000015   0.000169   0.000004  -0.000047  -0.000023  -0.000014
     53       0.000135   0.000051  -0.000055   0.000003   0.000006  -0.000001


-----------
IR SPECTRUM
-----------

 Mode   freq       eps      Int      T**2         TX        TY        TZ
       cm**-1   L/(mol*cm) km/mol    a.u.
----------------------------------------------------------------------------
  7:     40.23   0.003348   16.92  0.025965  ( 0.145092 -0.039682 -0.057784)
  8:     64.17   0.000514    2.60  0.002498  ( 0.006538  0.047380  0.014487)
  9:     69.79   0.001352    6.83  0.006045  ( 0.023819  0.073049  0.011891)
 10:    113.29   0.001186    5.99  0.003267  (-0.012213 -0.052029 -0.020266)
 11:    130.59   0.000950    4.80  0.002270  (-0.029376  0.035721  0.011439)
 12:    154.06   0.000549    2.78  0.001112  (-0.012782 -0.026957  0.014909)
 13:    193.28   0.003435   17.36  0.005547  (-0.045666 -0.057171  0.013884)
 14:    242.89   0.000525    2.65  0.000675  (-0.018685  0.009429 -0.015387)
 15:    284.66   0.002824   14.27  0.003096  (-0.019601 -0.050921 -0.010882)
 16:    384.69   0.000084    0.42  0.000068  (-0.002792 -0.003909 -0.006713)
 17:    400.31   0.031859  161.00  0.024836  ( 0.038195  0.152309  0.013389)
 18:    445.35   0.040237  203.34  0.028194  (-0.073445 -0.149134 -0.023647)
 19:    467.84   0.004326   21.86  0.002886  ( 0.009425 -0.047698 -0.022848)
 20:    567.28   0.003142   15.88  0.001728  (-0.001818 -0.022434  0.034951)
 21:    583.20   0.006882   34.78  0.003683  (-0.052876 -0.024785 -0.016509)
 22:    673.82   0.060526  305.87  0.028031  ( 0.084312  0.142151  0.026750)
 23:    685.09   0.068139  344.35  0.031038  (-0.063273 -0.161647  0.030075)
 24:    747.16   0.000761    3.84  0.000318  (-0.004953  0.007079 -0.015591)
 25:    756.23   0.026643  134.64  0.010994  (-0.059586 -0.082140  0.026399)
 26:    813.37   0.002376   12.01  0.000912  (-0.010562 -0.015778  0.023478)
 27:    829.84   0.009491   47.96  0.003569  (-0.038666 -0.042858  0.015405)
 28:    900.21   0.019133   96.69  0.006633  (-0.055380  0.041040 -0.043376)
 29:    962.21   0.002408   12.17  0.000781  ( 0.010545  0.022973 -0.011911)
 30:    973.18   0.004576   23.13  0.001467  (-0.021353  0.030621  0.008599)
 31:   1000.81   0.000070    0.35  0.000022  ( 0.001187 -0.004475 -0.000572)
 32:   1021.82   0.001653    8.35  0.000505  (-0.021053 -0.007849 -0.000260)
 33:   1065.66   0.106012  535.74  0.031044  ( 0.082590 -0.155536 -0.005611)
 34:   1102.02   0.042313  213.83  0.011982  ( 0.049429 -0.086646  0.045066)
 35:   1176.51   0.008074   40.80  0.002142  ( 0.040109 -0.002145 -0.022984)
 36:   1182.84   0.246313  1244.77  0.064984  (-0.134501  0.207091  0.063299)
 37:   1271.83   0.041782  211.15  0.010252  (-0.042234  0.090335 -0.017540)
 38:   1291.09   0.192575  973.20  0.046546  ( 0.132909 -0.162672  0.049189)
 39:   1355.25   0.007495   37.88  0.001726  ( 0.031584 -0.005602  0.026397)
 40:   1397.29   0.148125  748.56  0.033081  (-0.121086  0.120928 -0.061612)
 41:   1430.20   0.043091  217.76  0.009402  (-0.067722 -0.007922 -0.068943)
 42:   1463.50   0.002243   11.34  0.000478  ( 0.004255 -0.017169 -0.012864)
 43:   1470.28   0.002028   10.25  0.000430  ( 0.007859  0.013916 -0.013227)
 44:   1487.00   0.012294   62.13  0.002580  ( 0.009489 -0.032996 -0.037432)
 45:   1545.57   0.164074  829.16  0.033128  ( 0.057854  0.069567  0.157928)
 46:   1624.36   0.086108  435.16  0.016543  ( 0.061452 -0.094805 -0.061469)
 47:   1660.48   0.115147  581.90  0.021640  (-0.075883 -0.045047 -0.117697)
 48:   3048.96   0.022799  115.22  0.002333  ( 0.028190  0.003246  0.039093)
 49:   3127.13   0.005475   27.67  0.000546  ( 0.008745 -0.021326 -0.003877)
 50:   3134.12   0.005476   27.67  0.000545  ( 0.018489  0.008257 -0.011626)
 51:   3205.75   0.005088   25.71  0.000495  (-0.018584  0.006066 -0.010635)
 52:   3244.42   0.000350    1.77  0.000034  (-0.002712  0.002291  0.004585)
 53:   3256.33   0.000845    4.27  0.000081  ( 0.005749 -0.006880  0.000767)

* The epsilon (eps) is given for a Dirac delta lineshape.
** The dipole moment derivative (T) already includes vibrational overlap.

The first frequency considered to be a vibration is 7
The total number of vibrations considered is 47


--------------------------
THERMOCHEMISTRY AT 298.15K
--------------------------

Temperature         ... 298.15 K
Pressure            ... 1.00 atm
Total Mass          ... 189.18 AMU

Throughout the following assumptions are being made:
  (1) The electronic state is orbitally nondegenerate
  (2) There are no thermally accessible electronically excited states
  (3) Hindered rotations indicated by low frequency modes are not
      treated as such but are treated as vibrations and this may
      cause some error
  (4) All equations used are the standard statistical mechanics
      equations for an ideal gas
  (5) All vibrations are strictly harmonic

freq.      40.23  E(vib)   ...       0.54 
freq.      64.17  E(vib)   ...       0.51 
freq.      69.79  E(vib)   ...       0.50 
freq.     113.29  E(vib)   ...       0.45 
freq.     130.59  E(vib)   ...       0.43 
freq.     154.06  E(vib)   ...       0.40 
freq.     193.28  E(vib)   ...       0.36 
freq.     242.89  E(vib)   ...       0.31 
freq.     284.66  E(vib)   ...       0.28 
freq.     384.69  E(vib)   ...       0.20 
freq.     400.31  E(vib)   ...       0.19 
freq.     445.35  E(vib)   ...       0.17 
freq.     467.84  E(vib)   ...       0.16 
freq.     567.28  E(vib)   ...       0.11 
freq.     583.20  E(vib)   ...       0.11 
freq.     673.82  E(vib)   ...       0.08 
freq.     685.09  E(vib)   ...       0.07 
freq.     747.16  E(vib)   ...       0.06 
freq.     756.23  E(vib)   ...       0.06 
freq.     813.37  E(vib)   ...       0.05 
freq.     829.84  E(vib)   ...       0.04 
freq.     900.21  E(vib)   ...       0.03 
freq.     962.21  E(vib)   ...       0.03 
freq.     973.18  E(vib)   ...       0.03 
freq.    1000.81  E(vib)   ...       0.02 
freq.    1021.82  E(vib)   ...       0.02 
freq.    1065.66  E(vib)   ...       0.02 
freq.    1102.02  E(vib)   ...       0.02 
freq.    1176.51  E(vib)   ...       0.01 
freq.    1182.84  E(vib)   ...       0.01 
freq.    1271.83  E(vib)   ...       0.01 
freq.    1291.09  E(vib)   ...       0.01 
freq.    1355.25  E(vib)   ...       0.01 
freq.    1397.29  E(vib)   ...       0.00 
freq.    1430.20  E(vib)   ...       0.00 
freq.    1463.50  E(vib)   ...       0.00 
freq.    1470.28  E(vib)   ...       0.00 
freq.    1487.00  E(vib)   ...       0.00 
freq.    1545.57  E(vib)   ...       0.00 
freq.    1624.36  E(vib)   ...       0.00 
freq.    1660.48  E(vib)   ...       0.00 
freq.    3048.96  E(vib)   ...       0.00 
freq.    3127.13  E(vib)   ...       0.00 
freq.    3134.12  E(vib)   ...       0.00 
freq.    3205.75  E(vib)   ...       0.00 
freq.    3244.42  E(vib)   ...       0.00 
freq.    3256.33  E(vib)   ...       0.00 

------------
INNER ENERGY
------------

The inner energy is: U= E(el) + E(ZPE) + E(vib) + E(rot) + E(trans)
    E(el)   - is the total energy from the electronic structure calculation
              = E(kin-el) + E(nuc-el) + E(el-el) + E(nuc-nuc)
    E(ZPE)  - the the zero temperature vibrational energy from the frequency calculation
    E(vib)  - the the finite temperature correction to E(ZPE) due to population
              of excited vibrational states
    E(rot)  - is the rotational thermal energy
    E(trans)- is the translational thermal energy

Summary of contributions to the inner energy U:
Electronic energy                ...   -990.26673711 Eh
Zero point energy                ...      0.12084766 Eh      75.83 kcal/mol
Thermal vibrational correction   ...      0.00843047 Eh       5.29 kcal/mol
Thermal rotational correction    ...      0.00141627 Eh       0.89 kcal/mol
Thermal translational correction ...      0.00141627 Eh       0.89 kcal/mol
-----------------------------------------------------------------------
Total thermal energy                   -990.13462644 Eh


Summary of corrections to the electronic energy:
(perhaps to be used in another calculation)
Total thermal correction                  0.01126301 Eh       7.07 kcal/mol
Non-thermal (ZPE) correction              0.12084766 Eh      75.83 kcal/mol
-----------------------------------------------------------------------
Total correction                          0.13211067 Eh      82.90 kcal/mol


--------
ENTHALPY
--------

The enthalpy is H = U + kB*T
                kB is Boltzmann's constant
Total free energy                 ...   -990.13462644 Eh 
Thermal Enthalpy correction       ...      0.00094421 Eh       0.59 kcal/mol
-----------------------------------------------------------------------
Total Enthalpy                    ...   -990.13368223 Eh


Note: Only C1 symmetry has been detected, increase convergence thresholds 
      if your molecule has a higher symmetry. Symmetry factor of 1.0 is   
      used for the rotational entropy correction. 
 

Note: Rotational entropy computed according to Herzberg 
Infrared and Raman Spectra, Chapter V,1, Van Nostrand Reinhold, 1945 
Point Group:  C1, Symmetry Number:   1  
Rotational constants in cm-1:     0.032590     0.028145     0.019318 

Vibrational entropy computed according to the QRRHO of S. Grimme
Chem.Eur.J. 2012 18 9955


-------
ENTROPY
-------

The entropy contributions are T*S = T*(S(el)+S(vib)+S(rot)+S(trans))
     S(el)   - electronic entropy
     S(vib)  - vibrational entropy
     S(rot)  - rotational entropy
     S(trans)- translational entropy
The entropies will be listed as multiplied by the temperature to get
units of energy

Electronic entropy                ...      0.00000000 Eh      0.00 kcal/mol
Vibrational entropy               ...      0.01502027 Eh      9.43 kcal/mol
Rotational entropy                ...      0.01467587 Eh      9.21 kcal/mol
Translational entropy             ...      0.01977419 Eh     12.41 kcal/mol
-----------------------------------------------------------------------
Final entropy term                ...      0.04947032 Eh     31.04 kcal/mol

In case the symmetry of your molecule has not been determined correctly
or in case you have a reason to use a different symmetry number we print 
out the resulting rotational entropy values for sn=1,12 :
 --------------------------------------------------------
|  sn= 1 | S(rot)=       0.01467587 Eh      9.21 kcal/mol|
|  sn= 2 | S(rot)=       0.01402141 Eh      8.80 kcal/mol|
|  sn= 3 | S(rot)=       0.01363858 Eh      8.56 kcal/mol|
|  sn= 4 | S(rot)=       0.01336696 Eh      8.39 kcal/mol|
|  sn= 5 | S(rot)=       0.01315627 Eh      8.26 kcal/mol|
|  sn= 6 | S(rot)=       0.01298413 Eh      8.15 kcal/mol|
|  sn= 7 | S(rot)=       0.01283858 Eh      8.06 kcal/mol|
|  sn= 8 | S(rot)=       0.01271250 Eh      7.98 kcal/mol|
|  sn= 9 | S(rot)=       0.01260129 Eh      7.91 kcal/mol|
|  sn=10 | S(rot)=       0.01250181 Eh      7.84 kcal/mol|
|  sn=11 | S(rot)=       0.01241182 Eh      7.79 kcal/mol|
|  sn=12 | S(rot)=       0.01232967 Eh      7.74 kcal/mol|
 --------------------------------------------------------


-------------------
GIBBS FREE ENERGY
-------------------

The Gibbs free energy is G = H - T*S

Total enthalpy                    ...   -990.13368223 Eh 
Total entropy correction          ...     -0.04947032 Eh    -31.04 kcal/mol
-----------------------------------------------------------------------
Final Gibbs free energy         ...   -990.18315255 Eh

For completeness - the Gibbs free energy minus the electronic energy
G-E(el)                           ...      0.08358456 Eh     52.45 kcal/mol



Timings for individual modules:

Sum of individual times         ...    53821.871 sec (= 897.031 min)
GTO integral calculation        ...      119.124 sec (=   1.985 min)   0.2 %
SCF iterations                  ...     2253.239 sec (=  37.554 min)   4.2 %
SCF Gradient evaluation         ...      542.861 sec (=   9.048 min)   1.0 %
Geometry relaxation             ...        3.346 sec (=   0.056 min)   0.0 %
Numerical frequency calculation ...     2438.936 sec (=  40.649 min)   4.5 %
NEB Iterations                  ...    48464.364 sec (= 807.739 min)  90.0 %
                             ****ORCA TERMINATED NORMALLY****
TOTAL RUN TIME: 0 days 14 hours 58 minutes 28 seconds 580 msec
